n -t * -s 0  -x 0 -y 0 -Z 0 -z 30+i*100  -v circle -c black
n -t * -s 1  -x 0 -y 0 -Z 0 -z 30+i*100  -v circle -c black
n -t * -s 2  -x 0 -y 0 -Z 0 -z 30+i*100  -v circle -c black
n -t * -s 3  -x 0 -y 0 -Z 0 -z 30+i*100  -v circle -c black
n -t * -s 4  -x 0 -y 0 -Z 0 -z 30+i*100  -v circle -c black
n -t * -s 5  -x 0 -y 0 -Z 0 -z 30+i*100  -v circle -c black
V -t * -v 1.0a5 -a 0
W -t * -x 800 -y 800
A -t * -n 1 -p 0 -o 0x7fffffff -c 30 -a 1
A -t * -h 1 -m 1073741823 -s 0
n -t 0.000000 -s 0 -x 0.000000 -y 0.000000 -U 2121.320344 -V 2121.320344 -T 0.047140
n -t 0.000000 -s 1 -x 0.000000 -y 0.000000 -U 2121.320344 -V 2121.320344 -T 0.094281
n -t 0.000000 -s 2 -x 0.000000 -y 0.000000 -U 2496.150883 -V 1664.100589 -T 0.120185
n -t 0.000000 -s 3 -x 0.000000 -y 0.000000 -U 2400.000000 -V 1800.000000 -T 0.166667
n -t 0.000000 -s 4 -x 0.000000 -y 0.000000 -U 2572.478777 -V 1543.487266 -T 0.194365
n -t 0.000000 -s 5 -x 0.000000 -y 0.000000 -U 2496.150883 -V 1664.100589 -T 0.240370
+ -t 1.004599737 -s 0 -d -1 -p DSR -e 32 -c 2 -a 0 -i 1 -k RTR 
- -t 1.004599737 -s 0 -d -1 -p DSR -e 32 -c 2 -a 0 -i 1 -k RTR
h -t 1.004599737 -s 0 -d -1 -p DSR -e 32 -c 2 -a 0 -i 1 -k RTR
+ -t 1.004674737 -s 0 -d -1 -p DSR -e 90 -c 2 -a 0 -i 1 -k MAC 
- -t 1.004674737 -s 0 -d -1 -p DSR -e 90 -c 2 -a 0 -i 1 -k MAC
h -t 1.004674737 -s 0 -d -1 -p DSR -e 90 -c 2 -a 0 -i 1 -k MAC
r -t 1.005395209 -s 1 -d -1 -p DSR -e 32 -c 2 -a 0 -i 1 -k MAC
r -t 1.005395483 -s 2 -d -1 -p DSR -e 32 -c 2 -a 0 -i 1 -k MAC
+ -t 1.042603267 -s 0 -d -1 -p DSR -e 32 -c 2 -a 0 -i 6 -k RTR 
- -t 1.042603267 -s 0 -d -1 -p DSR -e 32 -c 2 -a 0 -i 6 -k RTR
h -t 1.042603267 -s 0 -d -1 -p DSR -e 32 -c 2 -a 0 -i 6 -k RTR
+ -t 1.043178267 -s 0 -d -1 -p DSR -e 90 -c 2 -a 0 -i 6 -k MAC 
- -t 1.043178267 -s 0 -d -1 -p DSR -e 90 -c 2 -a 0 -i 6 -k MAC
h -t 1.043178267 -s 0 -d -1 -p DSR -e 90 -c 2 -a 0 -i 6 -k MAC
r -t 1.043898739 -s 1 -d -1 -p DSR -e 32 -c 2 -a 0 -i 6 -k MAC
r -t 1.043899013 -s 2 -d -1 -p DSR -e 32 -c 2 -a 0 -i 6 -k MAC
+ -t 1.051221887 -s 2 -d -1 -p DSR -e 48 -c 2 -a 0 -i 6 -k RTR 
- -t 1.051221887 -s 2 -d -1 -p DSR -e 48 -c 2 -a 0 -i 6 -k RTR
h -t 1.051221887 -s 2 -d -1 -p DSR -e 48 -c 2 -a 0 -i 6 -k RTR
+ -t 1.051336887 -s 2 -d -1 -p DSR -e 106 -c 2 -a 0 -i 6 -k MAC 
- -t 1.051336887 -s 2 -d -1 -p DSR -e 106 -c 2 -a 0 -i 6 -k MAC
h -t 1.051336887 -s 2 -d -1 -p DSR -e 106 -c 2 -a 0 -i 6 -k MAC
r -t 1.052185220 -s 1 -d -1 -p DSR -e 48 -c 2 -a 0 -i 6 -k MAC
r -t 1.052185358 -s 3 -d -1 -p DSR -e 48 -c 2 -a 0 -i 6 -k MAC
r -t 1.052185632 -s 0 -d -1 -p DSR -e 48 -c 2 -a 0 -i 6 -k MAC
r -t 1.052185632 -s 4 -d -1 -p DSR -e 48 -c 2 -a 0 -i 6 -k MAC
+ -t 1.052733535 -s 1 -d -1 -p DSR -e 48 -c 2 -a 0 -i 6 -k RTR 
- -t 1.052733535 -s 1 -d -1 -p DSR -e 48 -c 2 -a 0 -i 6 -k RTR
h -t 1.052733535 -s 1 -d -1 -p DSR -e 48 -c 2 -a 0 -i 6 -k RTR
+ -t 1.052888535 -s 1 -d -1 -p DSR -e 106 -c 2 -a 0 -i 6 -k MAC 
- -t 1.052888535 -s 1 -d -1 -p DSR -e 106 -c 2 -a 0 -i 6 -k MAC
h -t 1.052888535 -s 1 -d -1 -p DSR -e 106 -c 2 -a 0 -i 6 -k MAC
r -t 1.053736868 -s 2 -d -1 -p DSR -e 48 -c 2 -a 0 -i 6 -k MAC
r -t 1.053737006 -s 0 -d -1 -p DSR -e 48 -c 2 -a 0 -i 6 -k MAC
r -t 1.053737280 -s 3 -d -1 -p DSR -e 48 -c 2 -a 0 -i 6 -k MAC
+ -t 1.054269183 -s 3 -d -1 -p DSR -e 68 -c 2 -a 0 -i 6 -k RTR 
- -t 1.054269183 -s 3 -d -1 -p DSR -e 68 -c 2 -a 0 -i 6 -k RTR
h -t 1.054269183 -s 3 -d -1 -p DSR -e 68 -c 2 -a 0 -i 6 -k RTR
+ -t 1.054684183 -s 3 -d -1 -p DSR -e 126 -c 2 -a 0 -i 6 -k MAC 
- -t 1.054684183 -s 3 -d -1 -p DSR -e 126 -c 2 -a 0 -i 6 -k MAC
h -t 1.054684183 -s 3 -d -1 -p DSR -e 126 -c 2 -a 0 -i 6 -k MAC
r -t 1.055692516 -s 4 -d -1 -p DSR -e 68 -c 2 -a 0 -i 6 -k MAC
r -t 1.055692654 -s 2 -d -1 -p DSR -e 68 -c 2 -a 0 -i 6 -k MAC
r -t 1.055692928 -s 1 -d -1 -p DSR -e 68 -c 2 -a 0 -i 6 -k MAC
r -t 1.055692928 -s 5 -d -1 -p DSR -e 68 -c 2 -a 0 -i 6 -k MAC
+ -t 1.058964408 -s 4 -d -1 -p DSR -e 68 -c 2 -a 0 -i 6 -k RTR 
- -t 1.058964408 -s 4 -d -1 -p DSR -e 68 -c 2 -a 0 -i 6 -k RTR
h -t 1.058964408 -s 4 -d -1 -p DSR -e 68 -c 2 -a 0 -i 6 -k RTR
+ -t 1.059079408 -s 4 -d -1 -p DSR -e 126 -c 2 -a 0 -i 6 -k MAC 
- -t 1.059079408 -s 4 -d -1 -p DSR -e 126 -c 2 -a 0 -i 6 -k MAC
h -t 1.059079408 -s 4 -d -1 -p DSR -e 126 -c 2 -a 0 -i 6 -k MAC
r -t 1.060087741 -s 3 -d -1 -p DSR -e 68 -c 2 -a 0 -i 6 -k MAC
r -t 1.060087879 -s 5 -d -1 -p DSR -e 68 -c 2 -a 0 -i 6 -k MAC
r -t 1.060088153 -s 2 -d -1 -p DSR -e 68 -c 2 -a 0 -i 6 -k MAC
+ -t 1.061777374 -s 5 -d 4 -p DSR -e 60 -c 2 -a 0 -i 14 -k RTR 
- -t 1.061777374 -s 5 -d 4 -p DSR -e 60 -c 2 -a 0 -i 14 -k RTR
h -t 1.061777374 -s 5 -d 4 -p DSR -e 60 -c 2 -a 0 -i 14 -k RTR
+ -t 1.062272345 -s 5 -d 3 -p DSR -e 60 -c 2 -a 0 -i 11 -k RTR 
- -t 1.062272345 -s 5 -d 3 -p DSR -e 60 -c 2 -a 0 -i 11 -k RTR
h -t 1.062272345 -s 5 -d 3 -p DSR -e 60 -c 2 -a 0 -i 11 -k RTR
+ -t 1.062432374 -s 5 -d -1 -p ARP -e 86 -c 2 -a 0 -i 0 -k MAC 
- -t 1.062432374 -s 5 -d -1 -p ARP -e 86 -c 2 -a 0 -i 0 -k MAC
h -t 1.062432374 -s 5 -d -1 -p ARP -e 86 -c 2 -a 0 -i 0 -k MAC
r -t 1.063120845 -s 4 -d -1 -p ARP -e 28 -c 2 -a 0 -i 0 -k MAC
r -t 1.063121119 -s 3 -d -1 -p ARP -e 28 -c 2 -a 0 -i 0 -k MAC
+ -t 1.063170374 -s 5 -d -1 -p ARP -e 86 -c 2 -a 0 -i 0 -k MAC 
- -t 1.063170374 -s 5 -d -1 -p ARP -e 86 -c 2 -a 0 -i 0 -k MAC
h -t 1.063170374 -s 5 -d -1 -p ARP -e 86 -c 2 -a 0 -i 0 -k MAC
r -t 1.063858845 -s 4 -d -1 -p ARP -e 28 -c 2 -a 0 -i 0 -k MAC
r -t 1.063859119 -s 3 -d -1 -p ARP -e 28 -c 2 -a 0 -i 0 -k MAC
+ -t 1.064294119 -s 3 -d -1 -p RTS -e 44 -c 2 -a 0 -i 0 -k MAC 
- -t 1.064294119 -s 3 -d -1 -p RTS -e 44 -c 2 -a 0 -i 0 -k MAC
h -t 1.064294119 -s 3 -d -1 -p RTS -e 44 -c 2 -a 0 -i 0 -k MAC
r -t 1.064646865 -s 5 -d -1 -p RTS -e 44 -c 2 -a 0 -i 0 -k MAC
+ -t 1.064656865 -s 5 -d -1 -p CTS -e 38 -c 2 -a 0 -i 0 -k MAC 
- -t 1.064656865 -s 5 -d -1 -p CTS -e 38 -c 2 -a 0 -i 0 -k MAC
h -t 1.064656865 -s 5 -d -1 -p CTS -e 38 -c 2 -a 0 -i 0 -k MAC
r -t 1.064961610 -s 3 -d -1 -p CTS -e 38 -c 2 -a 0 -i 0 -k MAC
+ -t 1.064971610 -s 3 -d -1 -p ARP -e 86 -c 2 -a 0 -i 0 -k MAC 
- -t 1.064971610 -s 3 -d -1 -p ARP -e 86 -c 2 -a 0 -i 0 -k MAC
h -t 1.064971610 -s 3 -d -1 -p ARP -e 86 -c 2 -a 0 -i 0 -k MAC
r -t 1.065660355 -s 5 -d -1 -p ARP -e 28 -c 2 -a 0 -i 0 -k MAC
+ -t 1.065670355 -s 5 -d -1 -p ACK -e 38 -c 2 -a 0 -i 0 -k MAC 
- -t 1.065670355 -s 5 -d -1 -p ACK -e 38 -c 2 -a 0 -i 0 -k MAC
h -t 1.065670355 -s 5 -d -1 -p ACK -e 38 -c 2 -a 0 -i 0 -k MAC
r -t 1.065975101 -s 3 -d -1 -p ACK -e 38 -c 2 -a 0 -i 0 -k MAC
+ -t 1.066084355 -s 5 -d -1 -p RTS -e 44 -c 2 -a 0 -i 0 -k MAC 
- -t 1.066084355 -s 5 -d -1 -p RTS -e 44 -c 2 -a 0 -i 0 -k MAC
h -t 1.066084355 -s 5 -d -1 -p RTS -e 44 -c 2 -a 0 -i 0 -k MAC
r -t 1.066437101 -s 3 -d -1 -p RTS -e 44 -c 2 -a 0 -i 0 -k MAC
+ -t 1.066447101 -s 3 -d -1 -p CTS -e 38 -c 2 -a 0 -i 0 -k MAC 
- -t 1.066447101 -s 3 -d -1 -p CTS -e 38 -c 2 -a 0 -i 0 -k MAC
h -t 1.066447101 -s 3 -d -1 -p CTS -e 38 -c 2 -a 0 -i 0 -k MAC
r -t 1.066751846 -s 5 -d -1 -p CTS -e 38 -c 2 -a 0 -i 0 -k MAC
+ -t 1.066761846 -s 5 -d 3 -p DSR -e 118 -c 2 -a 0 -i 11 -k MAC 
- -t 1.066761846 -s 5 -d 3 -p DSR -e 118 -c 2 -a 0 -i 11 -k MAC
h -t 1.066761846 -s 5 -d 3 -p DSR -e 118 -c 2 -a 0 -i 11 -k MAC
r -t 1.067706591 -s 3 -d 3 -p DSR -e 60 -c 2 -a 0 -i 11 -k MAC
+ -t 1.067716591 -s 3 -d -1 -p ACK -e 38 -c 2 -a 0 -i 0 -k MAC 
- -t 1.067716591 -s 3 -d -1 -p ACK -e 38 -c 2 -a 0 -i 0 -k MAC
h -t 1.067716591 -s 3 -d -1 -p ACK -e 38 -c 2 -a 0 -i 0 -k MAC
+ -t 1.067731591 -s 3 -d 2 -p DSR -e 60 -c 2 -a 0 -i 11 -k RTR 
- -t 1.067731591 -s 3 -d 2 -p DSR -e 60 -c 2 -a 0 -i 11 -k RTR
h -t 1.067731591 -s 3 -d 2 -p DSR -e 60 -c 2 -a 0 -i 11 -k RTR
r -t 1.068021337 -s 5 -d -1 -p ACK -e 38 -c 2 -a 0 -i 0 -k MAC
+ -t 1.068210925 -s 4 -d -1 -p RTS -e 44 -c 2 -a 0 -i 0 -k MAC 
- -t 1.068210925 -s 4 -d -1 -p RTS -e 44 -c 2 -a 0 -i 0 -k MAC
h -t 1.068210925 -s 4 -d -1 -p RTS -e 44 -c 2 -a 0 -i 0 -k MAC
r -t 1.068563396 -s 5 -d -1 -p RTS -e 44 -c 2 -a 0 -i 0 -k MAC
+ -t 1.068573396 -s 5 -d -1 -p CTS -e 38 -c 2 -a 0 -i 0 -k MAC 
- -t 1.068573396 -s 5 -d -1 -p CTS -e 38 -c 2 -a 0 -i 0 -k MAC
h -t 1.068573396 -s 5 -d -1 -p CTS -e 38 -c 2 -a 0 -i 0 -k MAC
r -t 1.068877868 -s 4 -d -1 -p CTS -e 38 -c 2 -a 0 -i 0 -k MAC
+ -t 1.068887868 -s 4 -d -1 -p ARP -e 86 -c 2 -a 0 -i 0 -k MAC 
- -t 1.068887868 -s 4 -d -1 -p ARP -e 86 -c 2 -a 0 -i 0 -k MAC
h -t 1.068887868 -s 4 -d -1 -p ARP -e 86 -c 2 -a 0 -i 0 -k MAC
r -t 1.069576339 -s 5 -d -1 -p ARP -e 28 -c 2 -a 0 -i 0 -k MAC
+ -t 1.069586339 -s 5 -d -1 -p ACK -e 38 -c 2 -a 0 -i 0 -k MAC 
- -t 1.069586339 -s 5 -d -1 -p ACK -e 38 -c 2 -a 0 -i 0 -k MAC
h -t 1.069586339 -s 5 -d -1 -p ACK -e 38 -c 2 -a 0 -i 0 -k MAC
r -t 1.069890810 -s 4 -d -1 -p ACK -e 38 -c 2 -a 0 -i 0 -k MAC
+ -t 1.069940339 -s 5 -d -1 -p RTS -e 44 -c 2 -a 0 -i 0 -k MAC 
- -t 1.069940339 -s 5 -d -1 -p RTS -e 44 -c 2 -a 0 -i 0 -k MAC
h -t 1.069940339 -s 5 -d -1 -p RTS -e 44 -c 2 -a 0 -i 0 -k MAC
r -t 1.070292810 -s 4 -d -1 -p RTS -e 44 -c 2 -a 0 -i 0 -k MAC
+ -t 1.070302810 -s 4 -d -1 -p CTS -e 38 -c 2 -a 0 -i 0 -k MAC 
- -t 1.070302810 -s 4 -d -1 -p CTS -e 38 -c 2 -a 0 -i 0 -k MAC
h -t 1.070302810 -s 4 -d -1 -p CTS -e 38 -c 2 -a 0 -i 0 -k MAC
r -t 1.070607282 -s 5 -d -1 -p CTS -e 38 -c 2 -a 0 -i 0 -k MAC
+ -t 1.070617282 -s 5 -d 4 -p DSR -e 118 -c 2 -a 0 -i 14 -k MAC 
- -t 1.070617282 -s 5 -d 4 -p DSR -e 118 -c 2 -a 0 -i 14 -k MAC
h -t 1.070617282 -s 5 -d 4 -p DSR -e 118 -c 2 -a 0 -i 14 -k MAC
r -t 1.071561753 -s 4 -d 4 -p DSR -e 60 -c 2 -a 0 -i 14 -k MAC
+ -t 1.071571753 -s 4 -d -1 -p ACK -e 38 -c 2 -a 0 -i 0 -k MAC 
- -t 1.071571753 -s 4 -d -1 -p ACK -e 38 -c 2 -a 0 -i 0 -k MAC
h -t 1.071571753 -s 4 -d -1 -p ACK -e 38 -c 2 -a 0 -i 0 -k MAC
+ -t 1.071586753 -s 4 -d 2 -p DSR -e 60 -c 2 -a 0 -i 14 -k RTR 
- -t 1.071586753 -s 4 -d 2 -p DSR -e 60 -c 2 -a 0 -i 14 -k RTR
h -t 1.071586753 -s 4 -d 2 -p DSR -e 60 -c 2 -a 0 -i 14 -k RTR
r -t 1.071876225 -s 5 -d -1 -p ACK -e 38 -c 2 -a 0 -i 0 -k MAC
+ -t 1.072005753 -s 4 -d -1 -p ARP -e 86 -c 2 -a 0 -i 0 -k MAC 
- -t 1.072005753 -s 4 -d -1 -p ARP -e 86 -c 2 -a 0 -i 0 -k MAC
h -t 1.072005753 -s 4 -d -1 -p ARP -e 86 -c 2 -a 0 -i 0 -k MAC
r -t 1.072694087 -s 3 -d -1 -p ARP -e 28 -c 2 -a 0 -i 0 -k MAC
r -t 1.072694225 -s 5 -d -1 -p ARP -e 28 -c 2 -a 0 -i 0 -k MAC
r -t 1.072694499 -s 2 -d -1 -p ARP -e 28 -c 2 -a 0 -i 0 -k MAC
+ -t 1.072804087 -s 3 -d -1 -p ARP -e 86 -c 2 -a 0 -i 0 -k MAC 
- -t 1.072804087 -s 3 -d -1 -p ARP -e 86 -c 2 -a 0 -i 0 -k MAC
h -t 1.072804087 -s 3 -d -1 -p ARP -e 86 -c 2 -a 0 -i 0 -k MAC
r -t 1.073492420 -s 4 -d -1 -p ARP -e 28 -c 2 -a 0 -i 0 -k MAC
r -t 1.073492558 -s 2 -d -1 -p ARP -e 28 -c 2 -a 0 -i 0 -k MAC
r -t 1.073492832 -s 1 -d -1 -p ARP -e 28 -c 2 -a 0 -i 0 -k MAC
r -t 1.073492832 -s 5 -d -1 -p ARP -e 28 -c 2 -a 0 -i 0 -k MAC
+ -t 1.073842558 -s 2 -d -1 -p RTS -e 44 -c 2 -a 0 -i 0 -k MAC 
- -t 1.073842558 -s 2 -d -1 -p RTS -e 44 -c 2 -a 0 -i 0 -k MAC
h -t 1.073842558 -s 2 -d -1 -p RTS -e 44 -c 2 -a 0 -i 0 -k MAC
r -t 1.074195303 -s 4 -d -1 -p RTS -e 44 -c 2 -a 0 -i 0 -k MAC
+ -t 1.074205303 -s 4 -d -1 -p CTS -e 38 -c 2 -a 0 -i 0 -k MAC 
- -t 1.074205303 -s 4 -d -1 -p CTS -e 38 -c 2 -a 0 -i 0 -k MAC
h -t 1.074205303 -s 4 -d -1 -p CTS -e 38 -c 2 -a 0 -i 0 -k MAC
r -t 1.074510049 -s 2 -d -1 -p CTS -e 38 -c 2 -a 0 -i 0 -k MAC
+ -t 1.074520049 -s 2 -d -1 -p ARP -e 86 -c 2 -a 0 -i 0 -k MAC 
- -t 1.074520049 -s 2 -d -1 -p ARP -e 86 -c 2 -a 0 -i 0 -k MAC
h -t 1.074520049 -s 2 -d -1 -p ARP -e 86 -c 2 -a 0 -i 0 -k MAC
r -t 1.075208794 -s 4 -d -1 -p ARP -e 28 -c 2 -a 0 -i 0 -k MAC
+ -t 1.075218794 -s 4 -d -1 -p ACK -e 38 -c 2 -a 0 -i 0 -k MAC 
- -t 1.075218794 -s 4 -d -1 -p ACK -e 38 -c 2 -a 0 -i 0 -k MAC
h -t 1.075218794 -s 4 -d -1 -p ACK -e 38 -c 2 -a 0 -i 0 -k MAC
r -t 1.075523539 -s 2 -d -1 -p ACK -e 38 -c 2 -a 0 -i 0 -k MAC
+ -t 1.075672794 -s 4 -d -1 -p RTS -e 44 -c 2 -a 0 -i 0 -k MAC 
- -t 1.075672794 -s 4 -d -1 -p RTS -e 44 -c 2 -a 0 -i 0 -k MAC
h -t 1.075672794 -s 4 -d -1 -p RTS -e 44 -c 2 -a 0 -i 0 -k MAC
r -t 1.076025539 -s 2 -d -1 -p RTS -e 44 -c 2 -a 0 -i 0 -k MAC
+ -t 1.076035539 -s 2 -d -1 -p CTS -e 38 -c 2 -a 0 -i 0 -k MAC 
- -t 1.076035539 -s 2 -d -1 -p CTS -e 38 -c 2 -a 0 -i 0 -k MAC
h -t 1.076035539 -s 2 -d -1 -p CTS -e 38 -c 2 -a 0 -i 0 -k MAC
r -t 1.076340285 -s 4 -d -1 -p CTS -e 38 -c 2 -a 0 -i 0 -k MAC
+ -t 1.076350285 -s 4 -d 2 -p DSR -e 118 -c 2 -a 0 -i 14 -k MAC 
- -t 1.076350285 -s 4 -d 2 -p DSR -e 118 -c 2 -a 0 -i 14 -k MAC
h -t 1.076350285 -s 4 -d 2 -p DSR -e 118 -c 2 -a 0 -i 14 -k MAC
r -t 1.077295030 -s 2 -d 2 -p DSR -e 60 -c 2 -a 0 -i 14 -k MAC
+ -t 1.077305030 -s 2 -d -1 -p ACK -e 38 -c 2 -a 0 -i 0 -k MAC 
- -t 1.077305030 -s 2 -d -1 -p ACK -e 38 -c 2 -a 0 -i 0 -k MAC
h -t 1.077305030 -s 2 -d -1 -p ACK -e 38 -c 2 -a 0 -i 0 -k MAC
+ -t 1.077320030 -s 2 -d 0 -p DSR -e 60 -c 2 -a 0 -i 14 -k RTR 
- -t 1.077320030 -s 2 -d 0 -p DSR -e 60 -c 2 -a 0 -i 14 -k RTR
h -t 1.077320030 -s 2 -d 0 -p DSR -e 60 -c 2 -a 0 -i 14 -k RTR
r -t 1.077609775 -s 4 -d -1 -p ACK -e 38 -c 2 -a 0 -i 0 -k MAC
+ -t 1.077939030 -s 2 -d -1 -p RTS -e 44 -c 2 -a 0 -i 0 -k MAC 
- -t 1.077939030 -s 2 -d -1 -p RTS -e 44 -c 2 -a 0 -i 0 -k MAC
h -t 1.077939030 -s 2 -d -1 -p RTS -e 44 -c 2 -a 0 -i 0 -k MAC
r -t 1.078291501 -s 3 -d -1 -p RTS -e 44 -c 2 -a 0 -i 0 -k MAC
+ -t 1.078301501 -s 3 -d -1 -p CTS -e 38 -c 2 -a 0 -i 0 -k MAC 
- -t 1.078301501 -s 3 -d -1 -p CTS -e 38 -c 2 -a 0 -i 0 -k MAC
h -t 1.078301501 -s 3 -d -1 -p CTS -e 38 -c 2 -a 0 -i 0 -k MAC
r -t 1.078605973 -s 2 -d -1 -p CTS -e 38 -c 2 -a 0 -i 0 -k MAC
+ -t 1.078615973 -s 2 -d -1 -p ARP -e 86 -c 2 -a 0 -i 0 -k MAC 
- -t 1.078615973 -s 2 -d -1 -p ARP -e 86 -c 2 -a 0 -i 0 -k MAC
h -t 1.078615973 -s 2 -d -1 -p ARP -e 86 -c 2 -a 0 -i 0 -k MAC
r -t 1.079304444 -s 3 -d -1 -p ARP -e 28 -c 2 -a 0 -i 0 -k MAC
+ -t 1.079314444 -s 3 -d -1 -p ACK -e 38 -c 2 -a 0 -i 0 -k MAC 
- -t 1.079314444 -s 3 -d -1 -p ACK -e 38 -c 2 -a 0 -i 0 -k MAC
h -t 1.079314444 -s 3 -d -1 -p ACK -e 38 -c 2 -a 0 -i 0 -k MAC
r -t 1.079618916 -s 2 -d -1 -p ACK -e 38 -c 2 -a 0 -i 0 -k MAC
+ -t 1.079888444 -s 3 -d -1 -p RTS -e 44 -c 2 -a 0 -i 0 -k MAC 
- -t 1.079888444 -s 3 -d -1 -p RTS -e 44 -c 2 -a 0 -i 0 -k MAC
h -t 1.079888444 -s 3 -d -1 -p RTS -e 44 -c 2 -a 0 -i 0 -k MAC
r -t 1.080240916 -s 2 -d -1 -p RTS -e 44 -c 2 -a 0 -i 0 -k MAC
+ -t 1.080250916 -s 2 -d -1 -p CTS -e 38 -c 2 -a 0 -i 0 -k MAC 
- -t 1.080250916 -s 2 -d -1 -p CTS -e 38 -c 2 -a 0 -i 0 -k MAC
h -t 1.080250916 -s 2 -d -1 -p CTS -e 38 -c 2 -a 0 -i 0 -k MAC
r -t 1.080555387 -s 3 -d -1 -p CTS -e 38 -c 2 -a 0 -i 0 -k MAC
+ -t 1.080565387 -s 3 -d 2 -p DSR -e 118 -c 2 -a 0 -i 11 -k MAC 
- -t 1.080565387 -s 3 -d 2 -p DSR -e 118 -c 2 -a 0 -i 11 -k MAC
h -t 1.080565387 -s 3 -d 2 -p DSR -e 118 -c 2 -a 0 -i 11 -k MAC
r -t 1.081509858 -s 2 -d 2 -p DSR -e 60 -c 2 -a 0 -i 11 -k MAC
+ -t 1.081519858 -s 2 -d -1 -p ACK -e 38 -c 2 -a 0 -i 0 -k MAC 
- -t 1.081519858 -s 2 -d -1 -p ACK -e 38 -c 2 -a 0 -i 0 -k MAC
h -t 1.081519858 -s 2 -d -1 -p ACK -e 38 -c 2 -a 0 -i 0 -k MAC
+ -t 1.081534858 -s 2 -d 0 -p DSR -e 60 -c 2 -a 0 -i 11 -k RTR 
- -t 1.081534858 -s 2 -d 0 -p DSR -e 60 -c 2 -a 0 -i 11 -k RTR
h -t 1.081534858 -s 2 -d 0 -p DSR -e 60 -c 2 -a 0 -i 11 -k RTR
d -t 1.081534858 -s 2 -d 0 -p DSR -e 60 -c 2 -a 0 -i 14 -k IFQ
r -t 1.081824330 -s 3 -d -1 -p ACK -e 38 -c 2 -a 0 -i 0 -k MAC
+ -t 1.082193858 -s 2 -d -1 -p ARP -e 86 -c 2 -a 0 -i 0 -k MAC 
- -t 1.082193858 -s 2 -d -1 -p ARP -e 86 -c 2 -a 0 -i 0 -k MAC
h -t 1.082193858 -s 2 -d -1 -p ARP -e 86 -c 2 -a 0 -i 0 -k MAC
r -t 1.082882192 -s 1 -d -1 -p ARP -e 28 -c 2 -a 0 -i 0 -k MAC
r -t 1.082882330 -s 3 -d -1 -p ARP -e 28 -c 2 -a 0 -i 0 -k MAC
r -t 1.082882604 -s 0 -d -1 -p ARP -e 28 -c 2 -a 0 -i 0 -k MAC
r -t 1.082882604 -s 4 -d -1 -p ARP -e 28 -c 2 -a 0 -i 0 -k MAC
+ -t 1.083031858 -s 2 -d -1 -p ARP -e 86 -c 2 -a 0 -i 0 -k MAC 
- -t 1.083031858 -s 2 -d -1 -p ARP -e 86 -c 2 -a 0 -i 0 -k MAC
h -t 1.083031858 -s 2 -d -1 -p ARP -e 86 -c 2 -a 0 -i 0 -k MAC
r -t 1.083720192 -s 1 -d -1 -p ARP -e 28 -c 2 -a 0 -i 0 -k MAC
r -t 1.083720330 -s 3 -d -1 -p ARP -e 28 -c 2 -a 0 -i 0 -k MAC
r -t 1.083720604 -s 0 -d -1 -p ARP -e 28 -c 2 -a 0 -i 0 -k MAC
r -t 1.083720604 -s 4 -d -1 -p ARP -e 28 -c 2 -a 0 -i 0 -k MAC
+ -t 1.084150604 -s 0 -d -1 -p RTS -e 44 -c 2 -a 0 -i 0 -k MAC 
- -t 1.084150604 -s 0 -d -1 -p RTS -e 44 -c 2 -a 0 -i 0 -k MAC
h -t 1.084150604 -s 0 -d -1 -p RTS -e 44 -c 2 -a 0 -i 0 -k MAC
r -t 1.084503349 -s 2 -d -1 -p RTS -e 44 -c 2 -a 0 -i 0 -k MAC
+ -t 1.084513349 -s 2 -d -1 -p CTS -e 38 -c 2 -a 0 -i 0 -k MAC 
- -t 1.084513349 -s 2 -d -1 -p CTS -e 38 -c 2 -a 0 -i 0 -k MAC
h -t 1.084513349 -s 2 -d -1 -p CTS -e 38 -c 2 -a 0 -i 0 -k MAC
r -t 1.084818095 -s 0 -d -1 -p CTS -e 38 -c 2 -a 0 -i 0 -k MAC
+ -t 1.084828095 -s 0 -d -1 -p ARP -e 86 -c 2 -a 0 -i 0 -k MAC 
- -t 1.084828095 -s 0 -d -1 -p ARP -e 86 -c 2 -a 0 -i 0 -k MAC
h -t 1.084828095 -s 0 -d -1 -p ARP -e 86 -c 2 -a 0 -i 0 -k MAC
r -t 1.085516840 -s 2 -d -1 -p ARP -e 28 -c 2 -a 0 -i 0 -k MAC
+ -t 1.085526840 -s 2 -d -1 -p ACK -e 38 -c 2 -a 0 -i 0 -k MAC 
- -t 1.085526840 -s 2 -d -1 -p ACK -e 38 -c 2 -a 0 -i 0 -k MAC
h -t 1.085526840 -s 2 -d -1 -p ACK -e 38 -c 2 -a 0 -i 0 -k MAC
r -t 1.085831585 -s 0 -d -1 -p ACK -e 38 -c 2 -a 0 -i 0 -k MAC
+ -t 1.086020840 -s 2 -d -1 -p RTS -e 44 -c 2 -a 0 -i 0 -k MAC 
- -t 1.086020840 -s 2 -d -1 -p RTS -e 44 -c 2 -a 0 -i 0 -k MAC
h -t 1.086020840 -s 2 -d -1 -p RTS -e 44 -c 2 -a 0 -i 0 -k MAC
r -t 1.086373585 -s 0 -d -1 -p RTS -e 44 -c 2 -a 0 -i 0 -k MAC
+ -t 1.086383585 -s 0 -d -1 -p CTS -e 38 -c 2 -a 0 -i 0 -k MAC 
- -t 1.086383585 -s 0 -d -1 -p CTS -e 38 -c 2 -a 0 -i 0 -k MAC
h -t 1.086383585 -s 0 -d -1 -p CTS -e 38 -c 2 -a 0 -i 0 -k MAC
r -t 1.086688331 -s 2 -d -1 -p CTS -e 38 -c 2 -a 0 -i 0 -k MAC
+ -t 1.086698331 -s 2 -d 0 -p DSR -e 118 -c 2 -a 0 -i 11 -k MAC 
- -t 1.086698331 -s 2 -d 0 -p DSR -e 118 -c 2 -a 0 -i 11 -k MAC
h -t 1.086698331 -s 2 -d 0 -p DSR -e 118 -c 2 -a 0 -i 11 -k MAC
r -t 1.087643076 -s 0 -d 0 -p DSR -e 60 -c 2 -a 0 -i 11 -k MAC
+ -t 1.087653076 -s 0 -d -1 -p ACK -e 38 -c 2 -a 0 -i 0 -k MAC 
- -t 1.087653076 -s 0 -d -1 -p ACK -e 38 -c 2 -a 0 -i 0 -k MAC
h -t 1.087653076 -s 0 -d -1 -p ACK -e 38 -c 2 -a 0 -i 0 -k MAC
+ -t 1.087668076 -s 0 -d 2 -p cbr -e 1044 -c 2 -a 0 -i 0 -k RTR 
- -t 1.087668076 -s 0 -d 2 -p cbr -e 1044 -c 2 -a 0 -i 0 -k RTR
h -t 1.087668076 -s 0 -d 2 -p cbr -e 1044 -c 2 -a 0 -i 0 -k RTR
r -t 1.087957821 -s 2 -d -1 -p ACK -e 38 -c 2 -a 0 -i 0 -k MAC
+ -t 1.088207076 -s 0 -d -1 -p RTS -e 44 -c 2 -a 0 -i 0 -k MAC 
- -t 1.088207076 -s 0 -d -1 -p RTS -e 44 -c 2 -a 0 -i 0 -k MAC
h -t 1.088207076 -s 0 -d -1 -p RTS -e 44 -c 2 -a 0 -i 0 -k MAC
r -t 1.088559821 -s 2 -d -1 -p RTS -e 44 -c 2 -a 0 -i 0 -k MAC
+ -t 1.088569821 -s 2 -d -1 -p CTS -e 38 -c 2 -a 0 -i 0 -k MAC 
- -t 1.088569821 -s 2 -d -1 -p CTS -e 38 -c 2 -a 0 -i 0 -k MAC
h -t 1.088569821 -s 2 -d -1 -p CTS -e 38 -c 2 -a 0 -i 0 -k MAC
r -t 1.088874567 -s 0 -d -1 -p CTS -e 38 -c 2 -a 0 -i 0 -k MAC
+ -t 1.088884567 -s 0 -d -1 -p ARP -e 86 -c 2 -a 0 -i 0 -k MAC 
- -t 1.088884567 -s 0 -d -1 -p ARP -e 86 -c 2 -a 0 -i 0 -k MAC
h -t 1.088884567 -s 0 -d -1 -p ARP -e 86 -c 2 -a 0 -i 0 -k MAC
r -t 1.089573312 -s 2 -d -1 -p ARP -e 28 -c 2 -a 0 -i 0 -k MAC
+ -t 1.089583312 -s 2 -d -1 -p ACK -e 38 -c 2 -a 0 -i 0 -k MAC 
- -t 1.089583312 -s 2 -d -1 -p ACK -e 38 -c 2 -a 0 -i 0 -k MAC
h -t 1.089583312 -s 2 -d -1 -p ACK -e 38 -c 2 -a 0 -i 0 -k MAC
r -t 1.089888057 -s 0 -d -1 -p ACK -e 38 -c 2 -a 0 -i 0 -k MAC
+ -t 1.089978057 -s 0 -d -1 -p RTS -e 44 -c 2 -a 0 -i 0 -k MAC 
- -t 1.089978057 -s 0 -d -1 -p RTS -e 44 -c 2 -a 0 -i 0 -k MAC
h -t 1.089978057 -s 0 -d -1 -p RTS -e 44 -c 2 -a 0 -i 0 -k MAC
+ -t 1.090000000 -s 0 -d 2 -p cbr -e 1020 -c 2 -a 0 -i 22 -k RTR 
- -t 1.090000000 -s 0 -d 2 -p cbr -e 1020 -c 2 -a 0 -i 22 -k RTR
h -t 1.090000000 -s 0 -d 2 -p cbr -e 1020 -c 2 -a 0 -i 22 -k RTR
r -t 1.090330803 -s 2 -d -1 -p RTS -e 44 -c 2 -a 0 -i 0 -k MAC
+ -t 1.090340803 -s 2 -d -1 -p CTS -e 38 -c 2 -a 0 -i 0 -k MAC 
- -t 1.090340803 -s 2 -d -1 -p CTS -e 38 -c 2 -a 0 -i 0 -k MAC
h -t 1.090340803 -s 2 -d -1 -p CTS -e 38 -c 2 -a 0 -i 0 -k MAC
r -t 1.090645548 -s 0 -d -1 -p CTS -e 38 -c 2 -a 0 -i 0 -k MAC
+ -t 1.090655548 -s 0 -d 2 -p cbr -e 1102 -c 2 -a 0 -i 0 -k MAC 
- -t 1.090655548 -s 0 -d 2 -p cbr -e 1102 -c 2 -a 0 -i 0 -k MAC
h -t 1.090655548 -s 0 -d 2 -p cbr -e 1102 -c 2 -a 0 -i 0 -k MAC
r -t 1.099472293 -s 2 -d 2 -p cbr -e 1044 -c 2 -a 0 -i 0 -k MAC
+ -t 1.099482293 -s 2 -d -1 -p ACK -e 38 -c 2 -a 0 -i 0 -k MAC 
- -t 1.099482293 -s 2 -d -1 -p ACK -e 38 -c 2 -a 0 -i 0 -k MAC
h -t 1.099482293 -s 2 -d -1 -p ACK -e 38 -c 2 -a 0 -i 0 -k MAC
+ -t 1.099497293 -s 2 -d 3 -p cbr -e 1044 -c 2 -a 0 -i 0 -k RTR 
- -t 1.099497293 -s 2 -d 3 -p cbr -e 1044 -c 2 -a 0 -i 0 -k RTR
h -t 1.099497293 -s 2 -d 3 -p cbr -e 1044 -c 2 -a 0 -i 0 -k RTR
r -t 1.099787039 -s 0 -d -1 -p ACK -e 38 -c 2 -a 0 -i 0 -k MAC
+ -t 1.099896293 -s 2 -d -1 -p RTS -e 44 -c 2 -a 0 -i 0 -k MAC 
- -t 1.099896293 -s 2 -d -1 -p RTS -e 44 -c 2 -a 0 -i 0 -k MAC
h -t 1.099896293 -s 2 -d -1 -p RTS -e 44 -c 2 -a 0 -i 0 -k MAC
r -t 1.100248765 -s 3 -d -1 -p RTS -e 44 -c 2 -a 0 -i 0 -k MAC
+ -t 1.100258765 -s 3 -d -1 -p CTS -e 38 -c 2 -a 0 -i 0 -k MAC 
- -t 1.100258765 -s 3 -d -1 -p CTS -e 38 -c 2 -a 0 -i 0 -k MAC
h -t 1.100258765 -s 3 -d -1 -p CTS -e 38 -c 2 -a 0 -i 0 -k MAC
r -t 1.100563236 -s 2 -d -1 -p CTS -e 38 -c 2 -a 0 -i 0 -k MAC
+ -t 1.100573236 -s 2 -d 3 -p cbr -e 1102 -c 2 -a 0 -i 0 -k MAC 
- -t 1.100573236 -s 2 -d 3 -p cbr -e 1102 -c 2 -a 0 -i 0 -k MAC
h -t 1.100573236 -s 2 -d 3 -p cbr -e 1102 -c 2 -a 0 -i 0 -k MAC
+ -t 1.105000000 -s 0 -d 2 -p cbr -e 1020 -c 2 -a 0 -i 23 -k RTR 
- -t 1.105000000 -s 0 -d 2 -p cbr -e 1020 -c 2 -a 0 -i 23 -k RTR
h -t 1.105000000 -s 0 -d 2 -p cbr -e 1020 -c 2 -a 0 -i 23 -k RTR
r -t 1.109389708 -s 3 -d 3 -p cbr -e 1044 -c 2 -a 0 -i 0 -k MAC
+ -t 1.109399708 -s 3 -d -1 -p ACK -e 38 -c 2 -a 0 -i 0 -k MAC 
- -t 1.109399708 -s 3 -d -1 -p ACK -e 38 -c 2 -a 0 -i 0 -k MAC
h -t 1.109399708 -s 3 -d -1 -p ACK -e 38 -c 2 -a 0 -i 0 -k MAC
+ -t 1.109414708 -s 3 -d 5 -p cbr -e 1044 -c 2 -a 0 -i 0 -k RTR 
- -t 1.109414708 -s 3 -d 5 -p cbr -e 1044 -c 2 -a 0 -i 0 -k RTR
h -t 1.109414708 -s 3 -d 5 -p cbr -e 1044 -c 2 -a 0 -i 0 -k RTR
r -t 1.109704179 -s 2 -d -1 -p ACK -e 38 -c 2 -a 0 -i 0 -k MAC
+ -t 1.109913708 -s 3 -d -1 -p RTS -e 44 -c 2 -a 0 -i 0 -k MAC 
- -t 1.109913708 -s 3 -d -1 -p RTS -e 44 -c 2 -a 0 -i 0 -k MAC
h -t 1.109913708 -s 3 -d -1 -p RTS -e 44 -c 2 -a 0 -i 0 -k MAC
r -t 1.110266453 -s 5 -d -1 -p RTS -e 44 -c 2 -a 0 -i 0 -k MAC
+ -t 1.110276453 -s 5 -d -1 -p CTS -e 38 -c 2 -a 0 -i 0 -k MAC 
- -t 1.110276453 -s 5 -d -1 -p CTS -e 38 -c 2 -a 0 -i 0 -k MAC
h -t 1.110276453 -s 5 -d -1 -p CTS -e 38 -c 2 -a 0 -i 0 -k MAC
r -t 1.110581198 -s 3 -d -1 -p CTS -e 38 -c 2 -a 0 -i 0 -k MAC
+ -t 1.110591198 -s 3 -d 5 -p cbr -e 1102 -c 2 -a 0 -i 0 -k MAC 
- -t 1.110591198 -s 3 -d 5 -p cbr -e 1102 -c 2 -a 0 -i 0 -k MAC
h -t 1.110591198 -s 3 -d 5 -p cbr -e 1102 -c 2 -a 0 -i 0 -k MAC
+ -t 1.117668076 -s 0 -d 2 -p cbr -e 1044 -c 2 -a 0 -i 2 -k RTR 
- -t 1.117668076 -s 0 -d 2 -p cbr -e 1044 -c 2 -a 0 -i 2 -k RTR
h -t 1.117668076 -s 0 -d 2 -p cbr -e 1044 -c 2 -a 0 -i 2 -k RTR
r -t 1.119407944 -s 5 -d 5 -p cbr -e 1044 -c 2 -a 0 -i 0 -k MAC
+ -t 1.119417944 -s 5 -d -1 -p ACK -e 38 -c 2 -a 0 -i 0 -k MAC 
- -t 1.119417944 -s 5 -d -1 -p ACK -e 38 -c 2 -a 0 -i 0 -k MAC
h -t 1.119417944 -s 5 -d -1 -p ACK -e 38 -c 2 -a 0 -i 0 -k MAC
r -t 1.119722689 -s 3 -d -1 -p ACK -e 38 -c 2 -a 0 -i 0 -k MAC
+ -t 1.120000000 -s 0 -d 2 -p cbr -e 1020 -c 2 -a 0 -i 24 -k RTR 
- -t 1.120000000 -s 0 -d 2 -p cbr -e 1020 -c 2 -a 0 -i 24 -k RTR
h -t 1.120000000 -s 0 -d 2 -p cbr -e 1020 -c 2 -a 0 -i 24 -k RTR
+ -t 1.120142400 -s 0 -d -1 -p RTS -e 44 -c 2 -a 0 -i 0 -k MAC 
- -t 1.120142400 -s 0 -d -1 -p RTS -e 44 -c 2 -a 0 -i 0 -k MAC
h -t 1.120142400 -s 0 -d -1 -p RTS -e 44 -c 2 -a 0 -i 0 -k MAC
r -t 1.120495146 -s 2 -d -1 -p RTS -e 44 -c 2 -a 0 -i 0 -k MAC
+ -t 1.120505146 -s 2 -d -1 -p CTS -e 38 -c 2 -a 0 -i 0 -k MAC 
- -t 1.120505146 -s 2 -d -1 -p CTS -e 38 -c 2 -a 0 -i 0 -k MAC
h -t 1.120505146 -s 2 -d -1 -p CTS -e 38 -c 2 -a 0 -i 0 -k MAC
r -t 1.120809891 -s 0 -d -1 -p CTS -e 38 -c 2 -a 0 -i 0 -k MAC
+ -t 1.120819891 -s 0 -d 2 -p cbr -e 1078 -c 2 -a 0 -i 22 -k MAC 
- -t 1.120819891 -s 0 -d 2 -p cbr -e 1078 -c 2 -a 0 -i 22 -k MAC
h -t 1.120819891 -s 0 -d 2 -p cbr -e 1078 -c 2 -a 0 -i 22 -k MAC
r -t 1.129444636 -s 2 -d 2 -p cbr -e 1020 -c 2 -a 0 -i 22 -k MAC
+ -t 1.129454636 -s 2 -d -1 -p ACK -e 38 -c 2 -a 0 -i 0 -k MAC 
- -t 1.129454636 -s 2 -d -1 -p ACK -e 38 -c 2 -a 0 -i 0 -k MAC
h -t 1.129454636 -s 2 -d -1 -p ACK -e 38 -c 2 -a 0 -i 0 -k MAC
+ -t 1.129469636 -s 2 -d 3 -p cbr -e 1020 -c 2 -a 0 -i 22 -k RTR 
- -t 1.129469636 -s 2 -d 3 -p cbr -e 1020 -c 2 -a 0 -i 22 -k RTR
h -t 1.129469636 -s 2 -d 3 -p cbr -e 1020 -c 2 -a 0 -i 22 -k RTR
r -t 1.129759382 -s 0 -d -1 -p ACK -e 38 -c 2 -a 0 -i 0 -k MAC
+ -t 1.130008636 -s 2 -d -1 -p RTS -e 44 -c 2 -a 0 -i 0 -k MAC 
- -t 1.130008636 -s 2 -d -1 -p RTS -e 44 -c 2 -a 0 -i 0 -k MAC
h -t 1.130008636 -s 2 -d -1 -p RTS -e 44 -c 2 -a 0 -i 0 -k MAC
r -t 1.130361108 -s 3 -d -1 -p RTS -e 44 -c 2 -a 0 -i 0 -k MAC
+ -t 1.130371108 -s 3 -d -1 -p CTS -e 38 -c 2 -a 0 -i 0 -k MAC 
- -t 1.130371108 -s 3 -d -1 -p CTS -e 38 -c 2 -a 0 -i 0 -k MAC
h -t 1.130371108 -s 3 -d -1 -p CTS -e 38 -c 2 -a 0 -i 0 -k MAC
r -t 1.130675579 -s 2 -d -1 -p CTS -e 38 -c 2 -a 0 -i 0 -k MAC
+ -t 1.130685579 -s 2 -d 3 -p cbr -e 1078 -c 2 -a 0 -i 22 -k MAC 
- -t 1.130685579 -s 2 -d 3 -p cbr -e 1078 -c 2 -a 0 -i 22 -k MAC
h -t 1.130685579 -s 2 -d 3 -p cbr -e 1078 -c 2 -a 0 -i 22 -k MAC
+ -t 1.135000000 -s 0 -d 2 -p cbr -e 1020 -c 2 -a 0 -i 25 -k RTR 
- -t 1.135000000 -s 0 -d 2 -p cbr -e 1020 -c 2 -a 0 -i 25 -k RTR
h -t 1.135000000 -s 0 -d 2 -p cbr -e 1020 -c 2 -a 0 -i 25 -k RTR
r -t 1.139310051 -s 3 -d 3 -p cbr -e 1020 -c 2 -a 0 -i 22 -k MAC
+ -t 1.139320051 -s 3 -d -1 -p ACK -e 38 -c 2 -a 0 -i 0 -k MAC 
- -t 1.139320051 -s 3 -d -1 -p ACK -e 38 -c 2 -a 0 -i 0 -k MAC
h -t 1.139320051 -s 3 -d -1 -p ACK -e 38 -c 2 -a 0 -i 0 -k MAC
+ -t 1.139335051 -s 3 -d 5 -p cbr -e 1020 -c 2 -a 0 -i 22 -k RTR 
- -t 1.139335051 -s 3 -d 5 -p cbr -e 1020 -c 2 -a 0 -i 22 -k RTR
h -t 1.139335051 -s 3 -d 5 -p cbr -e 1020 -c 2 -a 0 -i 22 -k RTR
r -t 1.139624522 -s 2 -d -1 -p ACK -e 38 -c 2 -a 0 -i 0 -k MAC
+ -t 1.140094051 -s 3 -d -1 -p RTS -e 44 -c 2 -a 0 -i 0 -k MAC 
- -t 1.140094051 -s 3 -d -1 -p RTS -e 44 -c 2 -a 0 -i 0 -k MAC
h -t 1.140094051 -s 3 -d -1 -p RTS -e 44 -c 2 -a 0 -i 0 -k MAC
r -t 1.140446796 -s 5 -d -1 -p RTS -e 44 -c 2 -a 0 -i 0 -k MAC
+ -t 1.140456796 -s 5 -d -1 -p CTS -e 38 -c 2 -a 0 -i 0 -k MAC 
- -t 1.140456796 -s 5 -d -1 -p CTS -e 38 -c 2 -a 0 -i 0 -k MAC
h -t 1.140456796 -s 5 -d -1 -p CTS -e 38 -c 2 -a 0 -i 0 -k MAC
r -t 1.140761541 -s 3 -d -1 -p CTS -e 38 -c 2 -a 0 -i 0 -k MAC
+ -t 1.140771541 -s 3 -d 5 -p cbr -e 1078 -c 2 -a 0 -i 22 -k MAC 
- -t 1.140771541 -s 3 -d 5 -p cbr -e 1078 -c 2 -a 0 -i 22 -k MAC
h -t 1.140771541 -s 3 -d 5 -p cbr -e 1078 -c 2 -a 0 -i 22 -k MAC
+ -t 1.147668076 -s 0 -d 2 -p cbr -e 1044 -c 2 -a 0 -i 4 -k RTR 
- -t 1.147668076 -s 0 -d 2 -p cbr -e 1044 -c 2 -a 0 -i 4 -k RTR
h -t 1.147668076 -s 0 -d 2 -p cbr -e 1044 -c 2 -a 0 -i 4 -k RTR
r -t 1.149396287 -s 5 -d 5 -p cbr -e 1020 -c 2 -a 0 -i 22 -k MAC
+ -t 1.149406287 -s 5 -d -1 -p ACK -e 38 -c 2 -a 0 -i 0 -k MAC 
- -t 1.149406287 -s 5 -d -1 -p ACK -e 38 -c 2 -a 0 -i 0 -k MAC
h -t 1.149406287 -s 5 -d -1 -p ACK -e 38 -c 2 -a 0 -i 0 -k MAC
r -t 1.149711032 -s 3 -d -1 -p ACK -e 38 -c 2 -a 0 -i 0 -k MAC
+ -t 1.150000000 -s 0 -d 2 -p cbr -e 1020 -c 2 -a 0 -i 26 -k RTR 
- -t 1.150000000 -s 0 -d 2 -p cbr -e 1020 -c 2 -a 0 -i 26 -k RTR
h -t 1.150000000 -s 0 -d 2 -p cbr -e 1020 -c 2 -a 0 -i 26 -k RTR
+ -t 1.150050743 -s 0 -d -1 -p RTS -e 44 -c 2 -a 0 -i 0 -k MAC 
- -t 1.150050743 -s 0 -d -1 -p RTS -e 44 -c 2 -a 0 -i 0 -k MAC
h -t 1.150050743 -s 0 -d -1 -p RTS -e 44 -c 2 -a 0 -i 0 -k MAC
r -t 1.150403488 -s 2 -d -1 -p RTS -e 44 -c 2 -a 0 -i 0 -k MAC
+ -t 1.150413488 -s 2 -d -1 -p CTS -e 38 -c 2 -a 0 -i 0 -k MAC 
- -t 1.150413488 -s 2 -d -1 -p CTS -e 38 -c 2 -a 0 -i 0 -k MAC
h -t 1.150413488 -s 2 -d -1 -p CTS -e 38 -c 2 -a 0 -i 0 -k MAC
r -t 1.150718234 -s 0 -d -1 -p CTS -e 38 -c 2 -a 0 -i 0 -k MAC
+ -t 1.150728234 -s 0 -d 2 -p cbr -e 1078 -c 2 -a 0 -i 23 -k MAC 
- -t 1.150728234 -s 0 -d 2 -p cbr -e 1078 -c 2 -a 0 -i 23 -k MAC
h -t 1.150728234 -s 0 -d 2 -p cbr -e 1078 -c 2 -a 0 -i 23 -k MAC
r -t 1.159352979 -s 2 -d 2 -p cbr -e 1020 -c 2 -a 0 -i 23 -k MAC
+ -t 1.159362979 -s 2 -d -1 -p ACK -e 38 -c 2 -a 0 -i 0 -k MAC 
- -t 1.159362979 -s 2 -d -1 -p ACK -e 38 -c 2 -a 0 -i 0 -k MAC
h -t 1.159362979 -s 2 -d -1 -p ACK -e 38 -c 2 -a 0 -i 0 -k MAC
+ -t 1.159377979 -s 2 -d 3 -p cbr -e 1020 -c 2 -a 0 -i 23 -k RTR 
- -t 1.159377979 -s 2 -d 3 -p cbr -e 1020 -c 2 -a 0 -i 23 -k RTR
h -t 1.159377979 -s 2 -d 3 -p cbr -e 1020 -c 2 -a 0 -i 23 -k RTR
r -t 1.159667724 -s 0 -d -1 -p ACK -e 38 -c 2 -a 0 -i 0 -k MAC
+ -t 1.159737724 -s 0 -d -1 -p RTS -e 44 -c 2 -a 0 -i 0 -k MAC 
- -t 1.159737724 -s 0 -d -1 -p RTS -e 44 -c 2 -a 0 -i 0 -k MAC
h -t 1.159737724 -s 0 -d -1 -p RTS -e 44 -c 2 -a 0 -i 0 -k MAC
r -t 1.160090470 -s 2 -d -1 -p RTS -e 44 -c 2 -a 0 -i 0 -k MAC
+ -t 1.160100470 -s 2 -d -1 -p CTS -e 38 -c 2 -a 0 -i 0 -k MAC 
- -t 1.160100470 -s 2 -d -1 -p CTS -e 38 -c 2 -a 0 -i 0 -k MAC
h -t 1.160100470 -s 2 -d -1 -p CTS -e 38 -c 2 -a 0 -i 0 -k MAC
r -t 1.160405215 -s 0 -d -1 -p CTS -e 38 -c 2 -a 0 -i 0 -k MAC
+ -t 1.160415215 -s 0 -d 2 -p cbr -e 1102 -c 2 -a 0 -i 2 -k MAC 
- -t 1.160415215 -s 0 -d 2 -p cbr -e 1102 -c 2 -a 0 -i 2 -k MAC
h -t 1.160415215 -s 0 -d 2 -p cbr -e 1102 -c 2 -a 0 -i 2 -k MAC
+ -t 1.165000000 -s 0 -d 2 -p cbr -e 1020 -c 2 -a 0 -i 27 -k RTR 
- -t 1.165000000 -s 0 -d 2 -p cbr -e 1020 -c 2 -a 0 -i 27 -k RTR
h -t 1.165000000 -s 0 -d 2 -p cbr -e 1020 -c 2 -a 0 -i 27 -k RTR
r -t 1.169231961 -s 2 -d 2 -p cbr -e 1044 -c 2 -a 0 -i 2 -k MAC
+ -t 1.169241961 -s 2 -d -1 -p ACK -e 38 -c 2 -a 0 -i 0 -k MAC 
- -t 1.169241961 -s 2 -d -1 -p ACK -e 38 -c 2 -a 0 -i 0 -k MAC
h -t 1.169241961 -s 2 -d -1 -p ACK -e 38 -c 2 -a 0 -i 0 -k MAC
+ -t 1.169256961 -s 2 -d 3 -p cbr -e 1044 -c 2 -a 0 -i 2 -k RTR 