M 0.00000 0 (0.00, 0.00, 0.00), (100.00, 100.00), 3000.00
M 0.00000 1 (0.00, 0.00, 0.00), (200.00, 200.00), 3000.00
M 0.00000 2 (0.00, 0.00, 0.00), (300.00, 200.00), 3000.00
M 0.00000 3 (0.00, 0.00, 0.00), (400.00, 300.00), 3000.00
M 0.00000 4 (0.00, 0.00, 0.00), (500.00, 300.00), 3000.00
M 0.00000 5 (0.00, 0.00, 0.00), (600.00, 400.00), 3000.00
r 1.000000000 _0_ RTR  --- 0 cbr 1000 [0 0 0 0] ------- [0:2 5:0 32 0] [0] 0 0
s 1.000000000 _0_ RTR  --- 0 AODV 48 [0 0 0 0] ------- [0:255 -1:255 30 0] [0x2 1 1 [5 0] [0 4]] (REQUEST)
s 1.000235000 _0_ MAC  --- 0 AODV 106 [0 ffffffff 0 800] ------- [0:255 -1:255 30 0] [0x2 1 1 [5 0] [0 4]] (REQUEST)
r 1.001083471 _1_ MAC  --- 0 AODV 48 [0 ffffffff 0 800] ------- [0:255 -1:255 30 0] [0x2 1 1 [5 0] [0 4]] (REQUEST)
r 1.001083745 _2_ MAC  --- 0 AODV 48 [0 ffffffff 0 800] ------- [0:255 -1:255 30 0] [0x2 1 1 [5 0] [0 4]] (REQUEST)
r 1.001108471 _1_ RTR  --- 0 AODV 48 [0 ffffffff 0 800] ------- [0:255 -1:255 30 0] [0x2 1 1 [5 0] [0 4]] (REQUEST)
r 1.001108745 _2_ RTR  --- 0 AODV 48 [0 ffffffff 0 800] ------- [0:255 -1:255 30 0] [0x2 1 1 [5 0] [0 4]] (REQUEST)
s 1.003454489 _1_ RTR  --- 0 AODV 48 [0 ffffffff 0 800] ------- [1:255 -1:255 29 0] [0x2 2 1 [5 0] [0 4]] (REQUEST)
s 1.003789489 _1_ MAC  --- 0 AODV 106 [0 ffffffff 1 800] ------- [1:255 -1:255 29 0] [0x2 2 1 [5 0] [0 4]] (REQUEST)
r 1.004637822 _2_ MAC  --- 0 AODV 48 [0 ffffffff 1 800] ------- [1:255 -1:255 29 0] [0x2 2 1 [5 0] [0 4]] (REQUEST)
r 1.004637960 _0_ MAC  --- 0 AODV 48 [0 ffffffff 1 800] ------- [1:255 -1:255 29 0] [0x2 2 1 [5 0] [0 4]] (REQUEST)
r 1.004638234 _3_ MAC  --- 0 AODV 48 [0 ffffffff 1 800] ------- [1:255 -1:255 29 0] [0x2 2 1 [5 0] [0 4]] (REQUEST)
r 1.004662822 _2_ RTR  --- 0 AODV 48 [0 ffffffff 1 800] ------- [1:255 -1:255 29 0] [0x2 2 1 [5 0] [0 4]] (REQUEST)
r 1.004662960 _0_ RTR  --- 0 AODV 48 [0 ffffffff 1 800] ------- [1:255 -1:255 29 0] [0x2 2 1 [5 0] [0 4]] (REQUEST)
r 1.004663234 _3_ RTR  --- 0 AODV 48 [0 ffffffff 1 800] ------- [1:255 -1:255 29 0] [0x2 2 1 [5 0] [0 4]] (REQUEST)
s 1.006304688 _3_ RTR  --- 0 AODV 48 [0 ffffffff 1 800] ------- [3:255 -1:255 28 0] [0x2 3 1 [5 0] [0 4]] (REQUEST)
s 1.006919688 _3_ MAC  --- 0 AODV 106 [0 ffffffff 3 800] ------- [3:255 -1:255 28 0] [0x2 3 1 [5 0] [0 4]] (REQUEST)
s 1.007497397 _2_ RTR  --- 0 AODV 48 [0 ffffffff 0 800] ------- [2:255 -1:255 29 0] [0x2 2 1 [5 0] [0 4]] (REQUEST)
r 1.007768022 _4_ MAC  --- 0 AODV 48 [0 ffffffff 3 800] ------- [3:255 -1:255 28 0] [0x2 3 1 [5 0] [0 4]] (REQUEST)
r 1.007768160 _2_ MAC  --- 0 AODV 48 [0 ffffffff 3 800] ------- [3:255 -1:255 28 0] [0x2 3 1 [5 0] [0 4]] (REQUEST)
r 1.007768434 _1_ MAC  --- 0 AODV 48 [0 ffffffff 3 800] ------- [3:255 -1:255 28 0] [0x2 3 1 [5 0] [0 4]] (REQUEST)
r 1.007768434 _5_ MAC  --- 0 AODV 48 [0 ffffffff 3 800] ------- [3:255 -1:255 28 0] [0x2 3 1 [5 0] [0 4]] (REQUEST)
r 1.007793022 _4_ RTR  --- 0 AODV 48 [0 ffffffff 3 800] ------- [3:255 -1:255 28 0] [0x2 3 1 [5 0] [0 4]] (REQUEST)
r 1.007793160 _2_ RTR  --- 0 AODV 48 [0 ffffffff 3 800] ------- [3:255 -1:255 28 0] [0x2 3 1 [5 0] [0 4]] (REQUEST)
r 1.007793434 _1_ RTR  --- 0 AODV 48 [0 ffffffff 3 800] ------- [3:255 -1:255 28 0] [0x2 3 1 [5 0] [0 4]] (REQUEST)
r 1.007793434 _5_ RTR  --- 0 AODV 48 [0 ffffffff 3 800] ------- [3:255 -1:255 28 0] [0x2 3 1 [5 0] [0 4]] (REQUEST)
s 1.007793434 _5_ RTR  --- 0 AODV 44 [0 0 0 0] ------- [5:255 0:255 30 3] [0x4 1 [5 4] 10.000000] (REPLY)
s 1.007978160 _2_ MAC  --- 0 AODV 106 [0 ffffffff 2 800] ------- [2:255 -1:255 29 0] [0x2 2 1 [5 0] [0 4]] (REQUEST)
r 1.008826493 _1_ MAC  --- 0 AODV 48 [0 ffffffff 2 800] ------- [2:255 -1:255 29 0] [0x2 2 1 [5 0] [0 4]] (REQUEST)
r 1.008826631 _3_ MAC  --- 0 AODV 48 [0 ffffffff 2 800] ------- [2:255 -1:255 29 0] [0x2 2 1 [5 0] [0 4]] (REQUEST)
r 1.008826905 _0_ MAC  --- 0 AODV 48 [0 ffffffff 2 800] ------- [2:255 -1:255 29 0] [0x2 2 1 [5 0] [0 4]] (REQUEST)
r 1.008826905 _4_ MAC  --- 0 AODV 48 [0 ffffffff 2 800] ------- [2:255 -1:255 29 0] [0x2 2 1 [5 0] [0 4]] (REQUEST)
r 1.008851493 _1_ RTR  --- 0 AODV 48 [0 ffffffff 2 800] ------- [2:255 -1:255 29 0] [0x2 2 1 [5 0] [0 4]] (REQUEST)
r 1.008851631 _3_ RTR  --- 0 AODV 48 [0 ffffffff 2 800] ------- [2:255 -1:255 29 0] [0x2 2 1 [5 0] [0 4]] (REQUEST)
r 1.008851905 _0_ RTR  --- 0 AODV 48 [0 ffffffff 2 800] ------- [2:255 -1:255 29 0] [0x2 2 1 [5 0] [0 4]] (REQUEST)
r 1.008851905 _4_ RTR  --- 0 AODV 48 [0 ffffffff 2 800] ------- [2:255 -1:255 29 0] [0x2 2 1 [5 0] [0 4]] (REQUEST)
s 1.009281362 _5_ MAC  --- 0 ARP 86 [0 ffffffff 5 806] ------- [REQUEST 5/5 0/3]
r 1.009969833 _4_ MAC  --- 0 ARP 28 [0 ffffffff 5 806] ------- [REQUEST 5/5 0/3]
r 1.009970107 _3_ MAC  --- 0 ARP 28 [0 ffffffff 5 806] ------- [REQUEST 5/5 0/3]
s 1.010345107 _3_ MAC  --- 0 RTS 44 [52e 5 3 0] 
r 1.010697852 _5_ MAC  --- 0 RTS 44 [52e 5 3 0] 
s 1.010707852 _5_ MAC  --- 0 CTS 38 [3f4 3 0 0] 
r 1.011012598 _3_ MAC  --- 0 CTS 38 [3f4 3 0 0] 
s 1.011022598 _3_ MAC  --- 0 ARP 86 [13a 5 3 806] ------- [REPLY 3/3 5/5]
r 1.011711343 _5_ MAC  --- 0 ARP 28 [13a 5 3 806] ------- [REPLY 3/3 5/5]
s 1.011721343 _5_ MAC  --- 0 ACK 38 [0 3 0 0] 
r 1.012026088 _3_ MAC  --- 0 ACK 38 [0 3 0 0] 
s 1.012095343 _5_ MAC  --- 0 RTS 44 [5ae 3 5 0] 
r 1.012448088 _3_ MAC  --- 0 RTS 44 [5ae 3 5 0] 
s 1.012458088 _3_ MAC  --- 0 CTS 38 [474 5 0 0] 
r 1.012762834 _5_ MAC  --- 0 CTS 38 [474 5 0 0] 
s 1.012772834 _5_ MAC  --- 0 AODV 102 [13a 3 5 800] ------- [5:255 0:255 30 3] [0x4 1 [5 4] 10.000000] (REPLY)
r 1.013589579 _3_ MAC  --- 0 AODV 44 [13a 3 5 800] ------- [5:255 0:255 30 3] [0x4 1 [5 4] 10.000000] (REPLY)
s 1.013599579 _3_ MAC  --- 0 ACK 38 [0 5 0 0] 
r 1.013614579 _3_ RTR  --- 0 AODV 44 [13a 3 5 800] ------- [5:255 0:255 30 3] [0x4 1 [5 4] 10.000000] (REPLY)
f 1.013614579 _3_ RTR  --- 0 AODV 44 [13a 3 5 800] ------- [5:255 0:255 29 1] [0x4 2 [5 4] 10.000000] (REPLY)
r 1.013904324 _5_ MAC  --- 0 ACK 38 [0 5 0 0] 
s 1.014153579 _3_ MAC  --- 0 ARP 86 [0 ffffffff 3 806] ------- [REQUEST 3/3 0/1]
r 1.014841912 _4_ MAC  --- 0 ARP 28 [0 ffffffff 3 806] ------- [REQUEST 3/3 0/1]
r 1.014842050 _2_ MAC  --- 0 ARP 28 [0 ffffffff 3 806] ------- [REQUEST 3/3 0/1]
r 1.014842324 _1_ MAC  --- 0 ARP 28 [0 ffffffff 3 806] ------- [REQUEST 3/3 0/1]
r 1.014842324 _5_ MAC  --- 0 ARP 28 [0 ffffffff 3 806] ------- [REQUEST 3/3 0/1]
r 1.015000000 _0_ RTR  --- 1 cbr 1000 [0 0 0 0] ------- [0:2 5:0 32 0] [1] 0 0
s 1.015137324 _1_ MAC  --- 0 RTS 44 [52e 3 1 0] 
r 1.015490070 _3_ MAC  --- 0 RTS 44 [52e 3 1 0] 
s 1.015500070 _3_ MAC  --- 0 CTS 38 [3f4 1 0 0] 
r 1.015804815 _1_ MAC  --- 0 CTS 38 [3f4 1 0 0] 
s 1.015814815 _1_ MAC  --- 0 ARP 86 [13a 3 1 806] ------- [REPLY 1/1 3/3]
s 1.016390299 _4_ RTR  --- 0 AODV 48 [0 ffffffff 3 800] ------- [4:255 -1:255 27 0] [0x2 4 1 [5 0] [0 4]] (REQUEST)
r 1.016503561 _3_ MAC  --- 0 ARP 28 [13a 3 1 806] ------- [REPLY 1/1 3/3]
s 1.016513561 _3_ MAC  --- 0 ACK 38 [0 1 0 0] 
r 1.016818306 _1_ MAC  --- 0 ACK 38 [0 1 0 0] 
s 1.017047561 _3_ MAC  --- 0 RTS 44 [5ae 1 3 0] 
r 1.017400306 _1_ MAC  --- 0 RTS 44 [5ae 1 3 0] 
s 1.017410306 _1_ MAC  --- 0 CTS 38 [474 3 0 0] 
r 1.017715051 _3_ MAC  --- 0 CTS 38 [474 3 0 0] 
s 1.017725051 _3_ MAC  --- 0 AODV 102 [13a 1 3 800] ------- [5:255 0:255 29 1] [0x4 2 [5 4] 10.000000] (REPLY)
r 1.018541797 _1_ MAC  --- 0 AODV 44 [13a 1 3 800] ------- [5:255 0:255 29 1] [0x4 2 [5 4] 10.000000] (REPLY)
s 1.018551797 _1_ MAC  --- 0 ACK 38 [0 3 0 0] 
r 1.018566797 _1_ RTR  --- 0 AODV 44 [13a 1 3 800] ------- [5:255 0:255 29 1] [0x4 2 [5 4] 10.000000] (REPLY)
f 1.018566797 _1_ RTR  --- 0 AODV 44 [13a 1 3 800] ------- [5:255 0:255 28 0] [0x4 3 [5 4] 10.000000] (REPLY)
r 1.018856542 _3_ MAC  --- 0 ACK 38 [0 3 0 0] 
s 1.019325797 _1_ MAC  --- 0 ARP 86 [0 ffffffff 1 806] ------- [REQUEST 1/1 0/0]
r 1.020014130 _2_ MAC  --- 0 ARP 28 [0 ffffffff 1 806] ------- [REQUEST 1/1 0/0]
r 1.020014268 _0_ MAC  --- 0 ARP 28 [0 ffffffff 1 806] ------- [REQUEST 1/1 0/0]
r 1.020014542 _3_ MAC  --- 0 ARP 28 [0 ffffffff 1 806] ------- [REQUEST 1/1 0/0]
s 1.020429268 _0_ MAC  --- 0 RTS 44 [52e 1 0 0] 
r 1.020781739 _1_ MAC  --- 0 RTS 44 [52e 1 0 0] 
s 1.020791739 _1_ MAC  --- 0 CTS 38 [3f4 0 0 0] 
r 1.021096211 _0_ MAC  --- 0 CTS 38 [3f4 0 0 0] 
s 1.021106211 _0_ MAC  --- 0 ARP 86 [13a 1 0 806] ------- [REPLY 0/0 1/1]
r 1.021794682 _1_ MAC  --- 0 ARP 28 [13a 1 0 806] ------- [REPLY 0/0 1/1]
s 1.021804682 _1_ MAC  --- 0 ACK 38 [0 0 0 0] 
r 1.022109154 _0_ MAC  --- 0 ACK 38 [0 0 0 0] 
s 1.022338682 _1_ MAC  --- 0 RTS 44 [5ae 0 1 0] 
r 1.022691154 _0_ MAC  --- 0 RTS 44 [5ae 0 1 0] 
s 1.022701154 _0_ MAC  --- 0 CTS 38 [474 1 0 0] 
r 1.023005625 _1_ MAC  --- 0 CTS 38 [474 1 0 0] 
s 1.023015625 _1_ MAC  --- 0 AODV 102 [13a 0 1 800] ------- [5:255 0:255 28 0] [0x4 3 [5 4] 10.000000] (REPLY)
r 1.023832096 _0_ MAC  --- 0 AODV 44 [13a 0 1 800] ------- [5:255 0:255 28 0] [0x4 3 [5 4] 10.000000] (REPLY)
s 1.023842096 _0_ MAC  --- 0 ACK 38 [0 1 0 0] 
r 1.023857096 _0_ RTR  --- 0 AODV 44 [13a 0 1 800] ------- [5:255 0:255 28 0] [0x4 3 [5 4] 10.000000] (REPLY)
s 1.023857096 _0_ RTR  --- 0 cbr 1020 [0 0 0 0] ------- [0:2 5:0 30 1] [0] 0 0
r 1.024146568 _1_ MAC  --- 0 ACK 38 [0 1 0 0] 
s 1.024496096 _0_ MAC  --- 0 RTS 44 [242e 1 0 0] 
r 1.024848568 _1_ MAC  --- 0 RTS 44 [242e 1 0 0] 
s 1.024858568 _1_ MAC  --- 0 CTS 38 [22f4 0 0 0] 
r 1.025163039 _0_ MAC  --- 0 CTS 38 [22f4 0 0 0] 
s 1.025173039 _0_ MAC  --- 0 cbr 1078 [13a 1 0 800] ------- [0:2 5:0 30 1] [0] 0 0
r 1.030000000 _0_ RTR  --- 2 cbr 1000 [0 0 0 0] ------- [0:2 5:0 32 0] [2] 0 0
s 1.030000000 _0_ RTR  --- 2 cbr 1020 [0 0 0 0] ------- [0:2 5:0 30 1] [2] 0 0
r 1.033797511 _1_ MAC  --- 0 cbr 1020 [13a 1 0 800] ------- [0:2 5:0 30 1] [0] 1 0
s 1.033807511 _1_ MAC  --- 0 ACK 38 [0 0 0 0] 
r 1.033822511 _1_ RTR  --- 0 cbr 1020 [13a 1 0 800] ------- [0:2 5:0 30 1] [0] 1 0
f 1.033822511 _1_ RTR  --- 0 cbr 1020 [13a 1 0 800] ------- [0:2 5:0 29 3] [0] 1 0
s 1.033857096 _0_ RTR  --- 1 cbr 1020 [0 0 0 0] ------- [0:2 5:0 30 1] [1] 0 0
r 1.034111982 _0_ MAC  --- 0 ACK 38 [0 0 0 0] 
s 1.034241511 _1_ MAC  --- 0 RTS 44 [242e 3 1 0] 
r 1.034594256 _3_ MAC  --- 0 RTS 44 [242e 3 1 0] 
s 1.034604256 _3_ MAC  --- 0 CTS 38 [22f4 1 0 0] 
r 1.034909001 _1_ MAC  --- 0 CTS 38 [22f4 1 0 0] 
s 1.034919001 _1_ MAC  --- 0 cbr 1078 [13a 3 1 800] ------- [0:2 5:0 29 3] [0] 1 0
r 1.043543747 _3_ MAC  --- 0 cbr 1020 [13a 3 1 800] ------- [0:2 5:0 29 3] [0] 2 0
s 1.043553747 _3_ MAC  --- 0 ACK 38 [0 1 0 0] 
r 1.043568747 _3_ RTR  --- 0 cbr 1020 [13a 3 1 800] ------- [0:2 5:0 29 3] [0] 2 0
f 1.043568747 _3_ RTR  --- 0 cbr 1020 [13a 3 1 800] ------- [0:2 5:0 28 5] [0] 2 0
r 1.043858492 _1_ MAC  --- 0 ACK 38 [0 1 0 0] 
s 1.043987747 _3_ MAC  --- 0 RTS 44 [242e 5 3 0] 
r 1.044340492 _5_ MAC  --- 0 RTS 44 [242e 5 3 0] 
s 1.044350492 _5_ MAC  --- 0 CTS 38 [22f4 3 0 0] 
r 1.044655237 _3_ MAC  --- 0 CTS 38 [22f4 3 0 0] 
s 1.044665237 _3_ MAC  --- 0 cbr 1078 [13a 5 3 800] ------- [0:2 5:0 28 5] [0] 2 0
r 1.045000000 _0_ RTR  --- 3 cbr 1000 [0 0 0 0] ------- [0:2 5:0 32 0] [3] 0 0
s 1.045000000 _0_ RTR  --- 3 cbr 1020 [0 0 0 0] ------- [0:2 5:0 30 1] [3] 0 0
r 1.053289983 _5_ MAC  --- 0 cbr 1020 [13a 5 3 800] ------- [0:2 5:0 28 5] [0] 3 0
s 1.053299983 _5_ MAC  --- 0 ACK 38 [0 3 0 0] 
r 1.053604728 _3_ MAC  --- 0 ACK 38 [0 3 0 0] 
s 1.053784439 _0_ MAC  --- 0 RTS 44 [242e 1 0 0] 
r 1.054136911 _1_ MAC  --- 0 RTS 44 [242e 1 0 0] 
s 1.054146911 _1_ MAC  --- 0 CTS 38 [22f4 0 0 0] 
r 1.054451382 _0_ MAC  --- 0 CTS 38 [22f4 0 0 0] 
s 1.054461382 _0_ MAC  --- 2 cbr 1078 [13a 1 0 800] ------- [0:2 5:0 30 1] [2] 0 0
r 1.060000000 _0_ RTR  --- 4 cbr 1000 [0 0 0 0] ------- [0:2 5:0 32 0] [4] 0 0
s 1.060000000 _0_ RTR  --- 4 cbr 1020 [0 0 0 0] ------- [0:2 5:0 30 1] [4] 0 0
r 1.063085853 _1_ MAC  --- 2 cbr 1020 [13a 1 0 800] ------- [0:2 5:0 30 1] [2] 1 0
s 1.063095853 _1_ MAC  --- 0 ACK 38 [0 0 0 0] 
r 1.063110853 _1_ RTR  --- 2 cbr 1020 [13a 1 0 800] ------- [0:2 5:0 30 1] [2] 1 0
f 1.063110853 _1_ RTR  --- 2 cbr 1020 [13a 1 0 800] ------- [0:2 5:0 29 3] [2] 1 0
r 1.063400325 _0_ MAC  --- 0 ACK 38 [0 0 0 0] 
s 1.063550325 _0_ MAC  --- 0 RTS 44 [242e 1 0 0] 
r 1.063902796 _1_ MAC  --- 0 RTS 44 [242e 1 0 0] 
s 1.063912796 _1_ MAC  --- 0 CTS 38 [22f4 0 0 0] 
r 1.064217268 _0_ MAC  --- 0 CTS 38 [22f4 0 0 0] 
s 1.064227268 _0_ MAC  --- 1 cbr 1078 [13a 1 0 800] ------- [0:2 5:0 30 1] [1] 0 0
r 1.072851739 _1_ MAC  --- 1 cbr 1020 [13a 1 0 800] ------- [0:2 5:0 30 1] [1] 1 0
s 1.072861739 _1_ MAC  --- 0 ACK 38 [0 0 0 0] 
r 1.072876739 _1_ RTR  --- 1 cbr 1020 [13a 1 0 800] ------- [0:2 5:0 30 1] [1] 1 0
f 1.072876739 _1_ RTR  --- 1 cbr 1020 [13a 1 0 800] ------- [0:2 5:0 29 3] [1] 1 0
r 1.073166210 _0_ MAC  --- 0 ACK 38 [0 0 0 0] 
s 1.073335739 _1_ MAC  --- 0 RTS 44 [242e 3 1 0] 
r 1.073688484 _3_ MAC  --- 0 RTS 44 [242e 3 1 0] 
s 1.073698484 _3_ MAC  --- 0 CTS 38 [22f4 1 0 0] 
r 1.074003230 _1_ MAC  --- 0 CTS 38 [22f4 1 0 0] 
s 1.074013230 _1_ MAC  --- 2 cbr 1078 [13a 3 1 800] ------- [0:2 5:0 29 3] [2] 1 0
r 1.075000000 _0_ RTR  --- 5 cbr 1000 [0 0 0 0] ------- [0:2 5:0 32 0] [5] 0 0
s 1.075000000 _0_ RTR  --- 5 cbr 1020 [0 0 0 0] ------- [0:2 5:0 30 1] [5] 0 0
r 1.082637975 _3_ MAC  --- 2 cbr 1020 [13a 3 1 800] ------- [0:2 5:0 29 3] [2] 2 0
s 1.082647975 _3_ MAC  --- 0 ACK 38 [0 1 0 0] 
r 1.082662975 _3_ RTR  --- 2 cbr 1020 [13a 3 1 800] ------- [0:2 5:0 29 3] [2] 2 0
f 1.082662975 _3_ RTR  --- 2 cbr 1020 [13a 3 1 800] ------- [0:2 5:0 28 5] [2] 2 0
r 1.082952721 _1_ MAC  --- 0 ACK 38 [0 1 0 0] 
s 1.083192284 _4_ MAC  --- 0 AODV 106 [0 ffffffff 4 800] ------- [4:255 -1:255 27 0] [0x2 4 1 [5 0] [0 4]] (REQUEST)
r 1.084040617 _3_ MAC  --- 0 AODV 48 [0 ffffffff 4 800] ------- [4:255 -1:255 27 0] [0x2 4 1 [5 0] [0 4]] (REQUEST)
r 1.084040755 _5_ MAC  --- 0 AODV 48 [0 ffffffff 4 800] ------- [4:255 -1:255 27 0] [0x2 4 1 [5 0] [0 4]] (REQUEST)
r 1.084041029 _2_ MAC  --- 0 AODV 48 [0 ffffffff 4 800] ------- [4:255 -1:255 27 0] [0x2 4 1 [5 0] [0 4]] (REQUEST)
r 1.084065617 _3_ RTR  --- 0 AODV 48 [0 ffffffff 4 800] ------- [4:255 -1:255 27 0] [0x2 4 1 [5 0] [0 4]] (REQUEST)
r 1.084065755 _5_ RTR  --- 0 AODV 48 [0 ffffffff 4 800] ------- [4:255 -1:255 27 0] [0x2 4 1 [5 0] [0 4]] (REQUEST)
r 1.084066029 _2_ RTR  --- 0 AODV 48 [0 ffffffff 4 800] ------- [4:255 -1:255 27 0] [0x2 4 1 [5 0] [0 4]] (REQUEST)
s 1.084130617 _3_ MAC  --- 0 RTS 44 [242e 5 3 0] 
r 1.084483363 _5_ MAC  --- 0 RTS 44 [242e 5 3 0] 
s 1.084493363 _5_ MAC  --- 0 CTS 38 [22f4 3 0 0] 
r 1.084798108 _3_ MAC  --- 0 CTS 38 [22f4 3 0 0] 
s 1.084808108 _3_ MAC  --- 2 cbr 1078 [13a 5 3 800] ------- [0:2 5:0 28 5] [2] 2 0
r 1.090000000 _0_ RTR  --- 6 cbr 1000 [0 0 0 0] ------- [0:2 5:0 32 0] [6] 0 0
s 1.090000000 _0_ RTR  --- 6 cbr 1020 [0 0 0 0] ------- [0:2 5:0 30 1] [6] 0 0
r 1.093432853 _5_ MAC  --- 2 cbr 1020 [13a 5 3 800] ------- [0:2 5:0 28 5] [2] 3 0
s 1.093442853 _5_ MAC  --- 0 ACK 38 [0 3 0 0] 
r 1.093747599 _3_ MAC  --- 0 ACK 38 [0 3 0 0] 
s 1.094182344 _1_ MAC  --- 0 RTS 44 [242e 3 1 0] 
r 1.094535089 _3_ MAC  --- 0 RTS 44 [242e 3 1 0] 
s 1.094545089 _3_ MAC  --- 0 CTS 38 [22f4 1 0 0] 
r 1.094849835 _1_ MAC  --- 0 CTS 38 [22f4 1 0 0] 
s 1.094859835 _1_ MAC  --- 1 cbr 1078 [13a 3 1 800] ------- [0:2 5:0 29 3] [1] 1 0
r 1.103484580 _3_ MAC  --- 1 cbr 1020 [13a 3 1 800] ------- [0:2 5:0 29 3] [1] 2 0
s 1.103494580 _3_ MAC  --- 0 ACK 38 [0 1 0 0] 
r 1.103509580 _3_ RTR  --- 1 cbr 1020 [13a 3 1 800] ------- [0:2 5:0 29 3] [1] 2 0
f 1.103509580 _3_ RTR  --- 1 cbr 1020 [13a 3 1 800] ------- [0:2 5:0 28 5] [1] 2 0
r 1.103799325 _1_ MAC  --- 0 ACK 38 [0 1 0 0] 
s 1.103968580 _3_ MAC  --- 0 RTS 44 [242e 5 3 0] 
r 1.104321325 _5_ MAC  --- 0 RTS 44 [242e 5 3 0] 
s 1.104331325 _5_ MAC  --- 0 CTS 38 [22f4 3 0 0] 
r 1.104636071 _3_ MAC  --- 0 CTS 38 [22f4 3 0 0] 
s 1.104646071 _3_ MAC  --- 1 cbr 1078 [13a 5 3 800] ------- [0:2 5:0 28 5] [1] 2 0
r 1.105000000 _0_ RTR  --- 7 cbr 1000 [0 0 0 0] ------- [0:2 5:0 32 0] [7] 0 0
s 1.105000000 _0_ RTR  --- 7 cbr 1020 [0 0 0 0] ------- [0:2 5:0 30 1] [7] 0 0
r 1.113270816 _5_ MAC  --- 1 cbr 1020 [13a 5 3 800] ------- [0:2 5:0 28 5] [1] 3 0
s 1.113280816 _5_ MAC  --- 0 ACK 38 [0 3 0 0] 
r 1.113585562 _3_ MAC  --- 0 ACK 38 [0 3 0 0] 
s 1.113785273 _0_ MAC  --- 0 RTS 44 [242e 1 0 0] 
r 1.114137744 _1_ MAC  --- 0 RTS 44 [242e 1 0 0] 
s 1.114147744 _1_ MAC  --- 0 CTS 38 [22f4 0 0 0] 
r 1.114452215 _0_ MAC  --- 0 CTS 38 [22f4 0 0 0] 
s 1.114462215 _0_ MAC  --- 3 cbr 1078 [13a 1 0 800] ------- [0:2 5:0 30 1] [3] 0 0
r 1.120000000 _0_ RTR  --- 8 cbr 1000 [0 0 0 0] ------- [0:2 5:0 32 0] [8] 0 0
s 1.120000000 _0_ RTR  --- 8 cbr 1020 [0 0 0 0] ------- [0:2 5:0 30 1] [8] 0 0
r 1.123086687 _1_ MAC  --- 3 cbr 1020 [13a 1 0 800] ------- [0:2 5:0 30 1] [3] 1 0
s 1.123096687 _1_ MAC  --- 0 ACK 38 [0 0 0 0] 
r 1.123111687 _1_ RTR  --- 3 cbr 1020 [13a 1 0 800] ------- [0:2 5:0 30 1] [3] 1 0
f 1.123111687 _1_ RTR  --- 3 cbr 1020 [13a 1 0 800] ------- [0:2 5:0 29 3] [3] 1 0
r 1.123401158 _0_ MAC  --- 0 ACK 38 [0 0 0 0] 
s 1.123690687 _1_ MAC  --- 0 RTS 44 [242e 3 1 0] 
r 1.124043432 _3_ MAC  --- 0 RTS 44 [242e 3 1 0] 
s 1.124053432 _3_ MAC  --- 0 CTS 38 [22f4 1 0 0] 
r 1.124358178 _1_ MAC  --- 0 CTS 38 [22f4 1 0 0] 
s 1.124368178 _1_ MAC  --- 3 cbr 1078 [13a 3 1 800] ------- [0:2 5:0 29 3] [3] 1 0
r 1.132992923 _3_ MAC  --- 3 cbr 1020 [13a 3 1 800] ------- [0:2 5:0 29 3] [3] 2 0
s 1.133002923 _3_ MAC  --- 0 ACK 38 [0 1 0 0] 
r 1.133017923 _3_ RTR  --- 3 cbr 1020 [13a 3 1 800] ------- [0:2 5:0 29 3] [3] 2 0
f 1.133017923 _3_ RTR  --- 3 cbr 1020 [13a 3 1 800] ------- [0:2 5:0 28 5] [3] 2 0
r 1.133307668 _1_ MAC  --- 0 ACK 38 [0 1 0 0] 
s 1.133536923 _3_ MAC  --- 0 RTS 44 [242e 5 3 0] 
r 1.133889668 _5_ MAC  --- 0 RTS 44 [242e 5 3 0] 
s 1.133899668 _5_ MAC  --- 0 CTS 38 [22f4 3 0 0] 
r 1.134204414 _3_ MAC  --- 0 CTS 38 [22f4 3 0 0] 
s 1.134214414 _3_ MAC  --- 3 cbr 1078 [13a 5 3 800] ------- [0:2 5:0 28 5] [3] 2 0
r 1.135000000 _0_ RTR  --- 9 cbr 1000 [0 0 0 0] ------- [0:2 5:0 32 0] [9] 0 0
s 1.135000000 _0_ RTR  --- 9 cbr 1020 [0 0 0 0] ------- [0:2 5:0 30 1] [9] 0 0
r 1.142839159 _5_ MAC  --- 3 cbr 1020 [13a 5 3 800] ------- [0:2 5:0 28 5] [3] 3 0
s 1.142849159 _5_ MAC  --- 0 ACK 38 [0 3 0 0] 
r 1.143153904 _3_ MAC  --- 0 ACK 38 [0 3 0 0] 
s 1.143313615 _0_ MAC  --- 0 RTS 44 [242e 1 0 0] 
r 1.143666087 _1_ MAC  --- 0 RTS 44 [242e 1 0 0] 
s 1.143676087 _1_ MAC  --- 0 CTS 38 [22f4 0 0 0] 
r 1.143980558 _0_ MAC  --- 0 CTS 38 [22f4 0 0 0] 
s 1.143990558 _0_ MAC  --- 4 cbr 1078 [13a 1 0 800] ------- [0:2 5:0 30 1] [4] 0 0
r 1.150000000 _0_ RTR  --- 10 cbr 1000 [0 0 0 0] ------- [0:2 5:0 32 0] [10] 0 0
s 1.150000000 _0_ RTR  --- 10 cbr 1020 [0 0 0 0] ------- [0:2 5:0 30 1] [10] 0 0
r 1.152615030 _1_ MAC  --- 4 cbr 1020 [13a 1 0 800] ------- [0:2 5:0 30 1] [4] 1 0
s 1.152625030 _1_ MAC  --- 0 ACK 38 [0 0 0 0] 
r 1.152640030 _1_ RTR  --- 4 cbr 1020 [13a 1 0 800] ------- [0:2 5:0 30 1] [4] 1 0
f 1.152640030 _1_ RTR  --- 4 cbr 1020 [13a 1 0 800] ------- [0:2 5:0 29 3] [4] 1 0
r 1.152929501 _0_ MAC  --- 0 ACK 38 [0 0 0 0] 
s 1.152979501 _0_ MAC  --- 0 RTS 44 [242e 1 0 0] 
r 1.153331973 _1_ MAC  --- 0 RTS 44 [242e 1 0 0] 
s 1.153341973 _1_ MAC  --- 0 CTS 38 [22f4 0 0 0] 
r 1.153646444 _0_ MAC  --- 0 CTS 38 [22f4 0 0 0] 
s 1.153656444 _0_ MAC  --- 5 cbr 1078 [13a 1 0 800] ------- [0:2 5:0 30 1] [5] 0 0
r 1.162280915 _1_ MAC  --- 5 cbr 1020 [13a 1 0 800] ------- [0:2 5:0 30 1] [5] 1 0
s 1.162290915 _1_ MAC  --- 0 ACK 38 [0 0 0 0] 
r 1.162305915 _1_ RTR  --- 5 cbr 1020 [13a 1 0 800] ------- [0:2 5:0 30 1] [5] 1 0
f 1.162305915 _1_ RTR  --- 5 cbr 1020 [13a 1 0 800] ------- [0:2 5:0 29 3] [5] 1 0
r 1.162595387 _0_ MAC  --- 0 ACK 38 [0 0 0 0] 
s 1.162865387 _0_ MAC  --- 0 RTS 44 [242e 1 0 0] 
r 1.163217858 _1_ MAC  --- 0 RTS 44 [242e 1 0 0] 
s 1.163227858 _1_ MAC  --- 0 CTS 38 [22f4 0 0 0] 
r 1.163532330 _0_ MAC  --- 0 CTS 38 [22f4 0 0 0] 
s 1.163542330 _0_ MAC  --- 6 cbr 1078 [13a 1 0 800] ------- [0:2 5:0 30 1] [6] 0 0
r 1.165000000 _0_ RTR  --- 11 cbr 1000 [0 0 0 0] ------- [0:2 5:0 32 0] [11] 0 0
s 1.165000000 _0_ RTR  --- 11 cbr 1020 [0 0 0 0] ------- [0:2 5:0 30 1] [11] 0 0
r 1.172166801 _1_ MAC  --- 6 cbr 1020 [13a 1 0 800] ------- [0:2 5:0 30 1] [6] 1 0
s 1.172176801 _1_ MAC  --- 0 ACK 38 [0 0 0 0] 
r 1.172191801 _1_ RTR  --- 6 cbr 1020 [13a 1 0 800] ------- [0:2 5:0 30 1] [6] 1 0
f 1.172191801 _1_ RTR  --- 6 cbr 1020 [13a 1 0 800] ------- [0:2 5:0 29 3] [6] 1 0
r 1.172481272 _0_ MAC  --- 0 ACK 38 [0 0 0 0] 
s 1.172790801 _1_ MAC  --- 0 RTS 44 [242e 3 1 0] 
r 1.173143546 _3_ MAC  --- 0 RTS 44 [242e 3 1 0] 
s 1.173153546 _3_ MAC  --- 0 CTS 38 [22f4 1 0 0] 
r 1.173458292 _1_ MAC  --- 0 CTS 38 [22f4 1 0 0] 
s 1.173468292 _1_ MAC  --- 4 cbr 1078 [13a 3 1 800] ------- [0:2 5:0 29 3] [4] 1 0
r 1.180000000 _0_ RTR  --- 12 cbr 1000 [0 0 0 0] ------- [0:2 5:0 32 0] [12] 0 0
s 1.180000000 _0_ RTR  --- 12 cbr 1020 [0 0 0 0] ------- [0:2 5:0 30 1] [12] 0 0
r 1.182093037 _3_ MAC  --- 4 cbr 1020 [13a 3 1 800] ------- [0:2 5:0 29 3] [4] 2 0
s 1.182103037 _3_ MAC  --- 0 ACK 38 [0 1 0 0] 
r 1.182118037 _3_ RTR  --- 4 cbr 1020 [13a 3 1 800] ------- [0:2 5:0 29 3] [4] 2 0
f 1.182118037 _3_ RTR  --- 4 cbr 1020 [13a 3 1 800] ------- [0:2 5:0 28 5] [4] 2 0
r 1.182407782 _1_ MAC  --- 0 ACK 38 [0 1 0 0] 
s 1.182617037 _3_ MAC  --- 0 RTS 44 [242e 5 3 0] 
r 1.182969782 _5_ MAC  --- 0 RTS 44 [242e 5 3 0] 
s 1.182979782 _5_ MAC  --- 0 CTS 38 [22f4 3 0 0] 
r 1.183284528 _3_ MAC  --- 0 CTS 38 [22f4 3 0 0] 
s 1.183294528 _3_ MAC  --- 4 cbr 1078 [13a 5 3 800] ------- [0:2 5:0 28 5] [4] 2 0
r 1.191919273 _5_ MAC  --- 4 cbr 1020 [13a 5 3 800] ------- [0:2 5:0 28 5] [4] 3 0
s 1.191929273 _5_ MAC  --- 0 ACK 38 [0 3 0 0] 
r 1.192234018 _3_ MAC  --- 0 ACK 38 [0 3 0 0] 
s 1.192413730 _0_ MAC  --- 0 RTS 44 [242e 1 0 0] 
r 1.192766201 _1_ MAC  --- 0 RTS 44 [242e 1 0 0] 
s 1.192776201 _1_ MAC  --- 0 CTS 38 [22f4 0 0 0] 
r 1.193080672 _0_ MAC  --- 0 CTS 38 [22f4 0 0 0] 
s 1.193090672 _0_ MAC  --- 7 cbr 1078 [13a 1 0 800] ------- [0:2 5:0 30 1] [7] 0 0
r 1.195000000 _0_ RTR  --- 13 cbr 1000 [0 0 0 0] ------- [0:2 5:0 32 0] [13] 0 0
s 1.195000000 _0_ RTR  --- 13 cbr 1020 [0 0 0 0] ------- [0:2 5:0 30 1] [13] 0 0
r 1.201715144 _1_ MAC  --- 7 cbr 1020 [13a 1 0 800] ------- [0:2 5:0 30 1] [7] 1 0
s 1.201725144 _1_ MAC  --- 0 ACK 38 [0 0 0 0] 
r 1.201740144 _1_ RTR  --- 7 cbr 1020 [13a 1 0 800] ------- [0:2 5:0 30 1] [7] 1 0
f 1.201740144 _1_ RTR  --- 7 cbr 1020 [13a 1 0 800] ------- [0:2 5:0 29 3] [7] 1 0
r 1.202029615 _0_ MAC  --- 0 ACK 38 [0 0 0 0] 
s 1.202159144 _1_ MAC  --- 0 RTS 44 [242e 3 1 0] 
r 1.202511889 _3_ MAC  --- 0 RTS 44 [242e 3 1 0] 
s 1.202521889 _3_ MAC  --- 0 CTS 38 [22f4 1 0 0] 
r 1.202826634 _1_ MAC  --- 0 CTS 38 [22f4 1 0 0] 
s 1.202836634 _1_ MAC  --- 5 cbr 1078 [13a 3 1 800] ------- [0:2 5:0 29 3] [5] 1 0
r 1.210000000 _0_ RTR  --- 14 cbr 1000 [0 0 0 0] ------- [0:2 5:0 32 0] [14] 0 0
s 1.210000000 _0_ RTR  --- 14 cbr 1020 [0 0 0 0] ------- [0:2 5:0 30 1] [14] 0 0
r 1.211461380 _3_ MAC  --- 5 cbr 1020 [13a 3 1 800] ------- [0:2 5:0 29 3] [5] 2 0
s 1.211471380 _3_ MAC  --- 0 ACK 38 [0 1 0 0] 
r 1.211486380 _3_ RTR  --- 5 cbr 1020 [13a 3 1 800] ------- [0:2 5:0 29 3] [5] 2 0
f 1.211486380 _3_ RTR  --- 5 cbr 1020 [13a 3 1 800] ------- [0:2 5:0 28 5] [5] 2 0
r 1.211776125 _1_ MAC  --- 0 ACK 38 [0 1 0 0] 
s 1.211825380 _3_ MAC  --- 0 RTS 44 [242e 5 3 0] 
r 1.212178125 _5_ MAC  --- 0 RTS 44 [242e 5 3 0] 
s 1.212188125 _5_ MAC  --- 0 CTS 38 [22f4 3 0 0] 
r 1.212492871 _3_ MAC  --- 0 CTS 38 [22f4 3 0 0] 
s 1.212502871 _3_ MAC  --- 5 cbr 1078 [13a 5 3 800] ------- [0:2 5:0 28 5] [5] 2 0
r 1.221127616 _5_ MAC  --- 5 cbr 1020 [13a 5 3 800] ------- [0:2 5:0 28 5] [5] 3 0
s 1.221137616 _5_ MAC  --- 0 ACK 38 [0 3 0 0] 
r 1.221442361 _3_ MAC  --- 0 ACK 38 [0 3 0 0] 
s 1.221782072 _0_ MAC  --- 0 RTS 44 [242e 1 0 0] 
r 1.222134544 _1_ MAC  --- 0 RTS 44 [242e 1 0 0] 
s 1.222144544 _1_ MAC  --- 0 CTS 38 [22f4 0 0 0] 
r 1.222449015 _0_ MAC  --- 0 CTS 38 [22f4 0 0 0] 
s 1.222459015 _0_ MAC  --- 8 cbr 1078 [13a 1 0 800] ------- [0:2 5:0 30 1] [8] 0 0
r 1.225000000 _0_ RTR  --- 15 cbr 1000 [0 0 0 0] ------- [0:2 5:0 32 0] [15] 0 0
s 1.225000000 _0_ RTR  --- 15 cbr 1020 [0 0 0 0] ------- [0:2 5:0 30 1] [15] 0 0
r 1.231083487 _1_ MAC  --- 8 cbr 1020 [13a 1 0 800] ------- [0:2 5:0 30 1] [8] 1 0
s 1.231093487 _1_ MAC  --- 0 ACK 38 [0 0 0 0] 
r 1.231108487 _1_ RTR  --- 8 cbr 1020 [13a 1 0 800] ------- [0:2 5:0 30 1] [8] 1 0
f 1.231108487 _1_ RTR  --- 8 cbr 1020 [13a 1 0 800] ------- [0:2 5:0 29 3] [8] 1 0
r 1.231397958 _0_ MAC  --- 0 ACK 38 [0 0 0 0] 
s 1.231687487 _1_ MAC  --- 0 RTS 44 [242e 3 1 0] 
r 1.232040232 _3_ MAC  --- 0 RTS 44 [242e 3 1 0] 
s 1.232050232 _3_ MAC  --- 0 CTS 38 [22f4 1 0 0] 
r 1.232354977 _1_ MAC  --- 0 CTS 38 [22f4 1 0 0] 
s 1.232364977 _1_ MAC  --- 6 cbr 1078 [13a 3 1 800] ------- [0:2 5:0 29 3] [6] 1 0
r 1.240000000 _0_ RTR  --- 16 cbr 1000 [0 0 0 0] ------- [0:2 5:0 32 0] [16] 0 0
s 1.240000000 _0_ RTR  --- 16 cbr 1020 [0 0 0 0] ------- [0:2 5:0 30 1] [16] 0 0
r 1.240989723 _3_ MAC  --- 6 cbr 1020 [13a 3 1 800] ------- [0:2 5:0 29 3] [6] 2 0
s 1.240999723 _3_ MAC  --- 0 ACK 38 [0 1 0 0] 
r 1.241014723 _3_ RTR  --- 6 cbr 1020 [13a 3 1 800] ------- [0:2 5:0 29 3] [6] 2 0
f 1.241014723 _3_ RTR  --- 6 cbr 1020 [13a 3 1 800] ------- [0:2 5:0 28 5] [6] 2 0
r 1.241304468 _1_ MAC  --- 0 ACK 38 [0 1 0 0] 
s 1.241373723 _3_ MAC  --- 0 RTS 44 [242e 5 3 0] 
r 1.241726468 _5_ MAC  --- 0 RTS 44 [242e 5 3 0] 
s 1.241736468 _5_ MAC  --- 0 CTS 38 [22f4 3 0 0] 
r 1.242041213 _3_ MAC  --- 0 CTS 38 [22f4 3 0 0] 
s 1.242051213 _3_ MAC  --- 6 cbr 1078 [13a 5 3 800] ------- [0:2 5:0 28 5] [6] 2 0
r 1.250675959 _5_ MAC  --- 6 cbr 1020 [13a 5 3 800] ------- [0:2 5:0 28 5] [6] 3 0
s 1.250685959 _5_ MAC  --- 0 ACK 38 [0 3 0 0] 
r 1.250990704 _3_ MAC  --- 0 ACK 38 [0 3 0 0] 
s 1.251150415 _0_ MAC  --- 0 RTS 44 [242e 1 0 0] 
r 1.251502887 _1_ MAC  --- 0 RTS 44 [242e 1 0 0] 
s 1.251512887 _1_ MAC  --- 0 CTS 38 [22f4 0 0 0] 
r 1.251817358 _0_ MAC  --- 0 CTS 38 [22f4 0 0 0] 
s 1.251827358 _0_ MAC  --- 9 cbr 1078 [13a 1 0 800] ------- [0:2 5:0 30 1] [9] 0 0
r 1.255000000 _0_ RTR  --- 17 cbr 1000 [0 0 0 0] ------- [0:2 5:0 32 0] [17] 0 0
s 1.255000000 _0_ RTR  --- 17 cbr 1020 [0 0 0 0] ------- [0:2 5:0 30 1] [17] 0 0
r 1.260451829 _1_ MAC  --- 9 cbr 1020 [13a 1 0 800] ------- [0:2 5:0 30 1] [9] 1 0
s 1.260461829 _1_ MAC  --- 0 ACK 38 [0 0 0 0] 
r 1.260476829 _1_ RTR  --- 9 cbr 1020 [13a 1 0 800] ------- [0:2 5:0 30 1] [9] 1 0
f 1.260476829 _1_ RTR  --- 9 cbr 1020 [13a 1 0 800] ------- [0:2 5:0 29 3] [9] 1 0
r 1.260766301 _0_ MAC  --- 0 ACK 38 [0 0 0 0] 
s 1.260936301 _0_ MAC  --- 0 RTS 44 [242e 1 0 0] 
r 1.261288772 _1_ MAC  --- 0 RTS 44 [242e 1 0 0] 
s 1.261298772 _1_ MAC  --- 0 CTS 38 [22f4 0 0 0] 
r 1.261603244 _0_ MAC  --- 0 CTS 38 [22f4 0 0 0] 
s 1.261613244 _0_ MAC  --- 10 cbr 1078 [13a 1 0 800] ------- [0:2 5:0 30 1] [10] 0 0
r 1.270000000 _0_ RTR  --- 18 cbr 1000 [0 0 0 0] ------- [0:2 5:0 32 0] [18] 0 0
s 1.270000000 _0_ RTR  --- 18 cbr 1020 [0 0 0 0] ------- [0:2 5:0 30 1] [18] 0 0
r 1.270237715 _1_ MAC  --- 10 cbr 1020 [13a 1 0 800] ------- [0:2 5:0 30 1] [10] 1 0
s 1.270247715 _1_ MAC  --- 0 ACK 38 [0 0 0 0] 
r 1.270262715 _1_ RTR  --- 10 cbr 1020 [13a 1 0 800] ------- [0:2 5:0 30 1] [10] 1 0
f 1.270262715 _1_ RTR  --- 10 cbr 1020 [13a 1 0 800] ------- [0:2 5:0 29 3] [10] 1 0
r 1.270552186 _0_ MAC  --- 0 ACK 38 [0 0 0 0] 
s 1.270902186 _0_ MAC  --- 0 RTS 44 [242e 1 0 0] 
r 1.271254658 _1_ MAC  --- 0 RTS 44 [242e 1 0 0] 
s 1.271264658 _1_ MAC  --- 0 CTS 38 [22f4 0 0 0] 
r 1.271569129 _0_ MAC  --- 0 CTS 38 [22f4 0 0 0] 
s 1.271579129 _0_ MAC  --- 11 cbr 1078 [13a 1 0 800] ------- [0:2 5:0 30 1] [11] 0 0
r 1.280203601 _1_ MAC  --- 11 cbr 1020 [13a 1 0 800] ------- [0:2 5:0 30 1] [11] 1 0
s 1.280213601 _1_ MAC  --- 0 ACK 38 [0 0 0 0] 
r 1.280228601 _1_ RTR  --- 11 cbr 1020 [13a 1 0 800] ------- [0:2 5:0 30 1] [11] 1 0
f 1.280228601 _1_ RTR  --- 11 cbr 1020 [13a 1 0 800] ------- [0:2 5:0 29 3] [11] 1 0
r 1.280518072 _0_ MAC  --- 0 ACK 38 [0 0 0 0] 
s 1.280608072 _0_ MAC  --- 0 RTS 44 [242e 1 0 0] 
r 1.280960544 _1_ MAC  --- 0 RTS 44 [242e 1 0 0] 
s 1.280970544 _1_ MAC  --- 0 CTS 38 [22f4 0 0 0] 
r 1.281275015 _0_ MAC  --- 0 CTS 38 [22f4 0 0 0] 
s 1.281285015 _0_ MAC  --- 12 cbr 1078 [13a 1 0 800] ------- [0:2 5:0 30 1] [12] 0 0
r 1.285000000 _0_ RTR  --- 19 cbr 1000 [0 0 0 0] ------- [0:2 5:0 32 0] [19] 0 0
s 1.285000000 _0_ RTR  --- 19 cbr 1020 [0 0 0 0] ------- [0:2 5:0 30 1] [19] 0 0
r 1.289909486 _1_ MAC  --- 12 cbr 1020 [13a 1 0 800] ------- [0:2 5:0 30 1] [12] 1 0
s 1.289919486 _1_ MAC  --- 0 ACK 38 [0 0 0 0] 
r 1.289934486 _1_ RTR  --- 12 cbr 1020 [13a 1 0 800] ------- [0:2 5:0 30 1] [12] 1 0
f 1.289934486 _1_ RTR  --- 12 cbr 1020 [13a 1 0 800] ------- [0:2 5:0 29 3] [12] 1 0
r 1.290223958 _0_ MAC  --- 0 ACK 38 [0 0 0 0] 
s 1.290293486 _1_ MAC  --- 0 RTS 44 [242e 3 1 0] 
r 1.290646232 _3_ MAC  --- 0 RTS 44 [242e 3 1 0] 
s 1.290656232 _3_ MAC  --- 0 CTS 38 [22f4 1 0 0] 
r 1.290960977 _1_ MAC  --- 0 CTS 38 [22f4 1 0 0] 
s 1.290970977 _1_ MAC  --- 7 cbr 1078 [13a 3 1 800] ------- [0:2 5:0 29 3] [7] 1 0
r 1.299595722 _3_ MAC  --- 7 cbr 1020 [13a 3 1 800] ------- [0:2 5:0 29 3] [7] 2 0
s 1.299605722 _3_ MAC  --- 0 ACK 38 [0 1 0 0] 
r 1.299620722 _3_ RTR  --- 7 cbr 1020 [13a 3 1 800] ------- [0:2 5:0 29 3] [7] 2 0
f 1.299620722 _3_ RTR  --- 7 cbr 1020 [13a 3 1 800] ------- [0:2 5:0 28 5] [7] 2 0
r 1.299910468 _1_ MAC  --- 0 ACK 38 [0 1 0 0] 
r 1.300000000 _0_ RTR  --- 20 cbr 1000 [0 0 0 0] ------- [0:2 5:0 32 0] [20] 0 0
s 1.300000000 _0_ RTR  --- 20 cbr 1020 [0 0 0 0] ------- [0:2 5:0 30 1] [20] 0 0
s 1.300079722 _3_ MAC  --- 0 RTS 44 [242e 5 3 0] 
r 1.300432468 _5_ MAC  --- 0 RTS 44 [242e 5 3 0] 
s 1.300442468 _5_ MAC  --- 0 CTS 38 [22f4 3 0 0] 
r 1.300747213 _3_ MAC  --- 0 CTS 38 [22f4 3 0 0] 
s 1.300757213 _3_ MAC  --- 7 cbr 1078 [13a 5 3 800] ------- [0:2 5:0 28 5] [7] 2 0
r 1.309381958 _5_ MAC  --- 7 cbr 1020 [13a 5 3 800] ------- [0:2 5:0 28 5] [7] 3 0
s 1.309391958 _5_ MAC  --- 0 ACK 38 [0 3 0 0] 
r 1.309696704 _3_ MAC  --- 0 ACK 38 [0 3 0 0] 
s 1.310211449 _1_ MAC  --- 0 RTS 44 [242e 3 1 0] 